* GENERATED BY CHARMM-GUI (HTTP://WWW.CHARMM-GUI.ORG) V3.7 ON FEB, 28. 2024. JOB
* INPUT GENERATION
*  DATE:     2/28/24      9: 8:17      CREATED BY USER: apache
*
     28820  EXT
         1         1  DOPC      N               2.4285327185        0.9533643627       20.1520478634  MEMB      1               0.0000000000
         2         1  DOPC      C12             1.0935710941        0.4221256365       19.6643214830  MEMB      1               0.0000000000
         3         1  DOPC      H12A            0.7904694534        0.9538726363       18.7655371155  MEMB      1               0.0000000000
         4         1  DOPC      H12B            0.3417149336        0.6262579994       20.4147679810  MEMB      1               0.0000000000
         5         1  DOPC      C13             3.1434337994       -0.1550307885       20.8819305625  MEMB      1               0.0000000000
         6         1  DOPC      H13A            3.4366422957       -0.9181030786       20.1633414418  MEMB      1               0.0000000000
         7         1  DOPC      H13B            4.0386149556        0.2079232196       21.3658258534  MEMB      1               0.0000000000
         8         1  DOPC      H13C            2.4827851728       -0.6114042797       21.6054233547  MEMB      1               0.0000000000
         9         1  DOPC      C14             2.2394367622        2.0600016507       21.1363284997  MEMB      1               0.0000000000
        10         1  DOPC      H14A            1.5208611083        1.8210049630       21.9207581514  MEMB      1               0.0000000000
        11         1  DOPC      H14B            3.1603285197        2.2991350336       21.6433305838  MEMB      1               0.0000000000
        12         1  DOPC      H14C            1.8823908379        2.9921320166       20.6961139618  MEMB      1               0.0000000000
        13         1  DOPC      C15             3.2988902322        1.3896006548       19.0207994734  MEMB      1               0.0000000000
        14         1  DOPC      H15A            2.9580945532        2.3290407202       18.6042675526  MEMB      1               0.0000000000
        15         1  DOPC      H15B            3.3053770759        0.6144075561       18.2590446967  MEMB      1               0.0000000000
        16         1  DOPC      H15C            4.3295265653        1.4945101492       19.3576157724  MEMB      1               0.0000000000
        17         1  DOPC      C11             0.9995049529       -1.0978886407       19.3766107787  MEMB      1               0.0000000000
        18         1  DOPC      H11A            1.1617604630       -1.6589169374       20.3283032397  MEMB      1               0.0000000000
        19         1  DOPC      H11B           -0.0472138854       -1.3447371504       19.0937137029  MEMB      1               0.0000000000
        20         1  DOPC      P               2.5985358357       -2.8908829978       18.3937375066  MEMB      1               0.0000000000
        21         1  DOPC      O13             1.6488779105       -3.8939548200       18.9348155692  MEMB      1               0.0000000000
        22         1  DOPC      O14             3.8841249519       -2.6902965263       19.1002565199  MEMB      1               0.0000000000
        23         1  DOPC      O12             1.8980163767       -1.4738981683       18.3277583782  MEMB      1               0.0000000000
        24         1  DOPC      O11             2.8409510172       -3.2031423549       16.8592874602  MEMB      1               0.0000000000
        25         1  DOPC      C1              1.7268480345       -3.1488738474       15.9499789526  MEMB      1               0.0000000000
        26         1  DOPC      HA              0.8046266045       -2.7921150800       16.4388180085  MEMB      1               0.0000000000
        27         1  DOPC      HB              1.4501531632       -4.1703728075       15.6357284837  MEMB      1               0.0000000000
        28         1  DOPC      C2              1.9642124174       -2.2596080994       14.6846254009  MEMB      1               0.0000000000
        29         1  DOPC      HS              1.0047566843       -2.2570190164       14.1265205607  MEMB      1               0.0000000000
        30         1  DOPC      O21             3.0301542859       -2.7973121999       13.8844858674  MEMB      1               0.0000000000
        31         1  DOPC      C21             2.9479619173       -2.6011369428       12.5723395815  MEMB      1               0.0000000000
        32         1  DOPC      O22             1.9378709762       -2.3751613280       11.9345476820  MEMB      1               0.0000000000
        33         1  DOPC      C22             4.3794697872       -2.5661112110       12.0789494591  MEMB      1               0.0000000000
        34         1  DOPC      H2R             4.8296584575       -3.5581605891       12.2427805107  MEMB      1               0.0000000000
        35         1  DOPC      H2S             4.8959736052       -1.8160432971       12.7114754245  MEMB      1               0.0000000000
        36         1  DOPC      C3              2.2849530095       -0.7816781852       15.0614070433  MEMB      1               0.0000000000
        37         1  DOPC      HX              3.2628995929       -0.7848726391       15.5991413672  MEMB      1               0.0000000000
        38         1  DOPC      HY              1.5100715901       -0.4330428158       15.7796941340  MEMB      1               0.0000000000
        39         1  DOPC      O31             2.2487185515        0.0707506163       13.8932650077  MEMB      1               0.0000000000
        40         1  DOPC      C31             3.3795733357        0.6824127411       13.5256908124  MEMB      1               0.0000000000
        41         1  DOPC      O32             4.4072905408        0.6956941121       14.1760944044  MEMB      1               0.0000000000
        42         1  DOPC      C32             3.2178263491        1.2462039070       12.0940439169  MEMB      1               0.0000000000
        43         1  DOPC      H2X             2.6607386739        0.4738114250       11.5340957137  MEMB      1               0.0000000000
        44         1  DOPC      H2Y             2.5630328418        2.1234137638       12.1450502692  MEMB      1               0.0000000000
        45         1  DOPC      C23             4.6076524719       -2.1193520814       10.6356735293  MEMB      1               0.0000000000
        46         1  DOPC      H3R             4.0944600133       -1.1521047259       10.4759603414  MEMB      1               0.0000000000
        47         1  DOPC      H3S             4.1595011731       -2.8676217137        9.9581212773  MEMB      1               0.0000000000
        48         1  DOPC      C24             6.1138171394       -1.9676683191       10.3887024626  MEMB      1               0.0000000000
        49         1  DOPC      H4R             6.5964798159       -2.9558946740       10.5759764922  MEMB      1               0.0000000000
        50         1  DOPC      H4S             6.5088292085       -1.2576748241       11.1496542187  MEMB      1               0.0000000000
        51         1  DOPC      C25             6.5664180336       -1.4681457137        9.0123056994  MEMB      1               0.0000000000
        52         1  DOPC      H5R             7.6795711518       -1.4394475877        9.0437583711  MEMB      1               0.0000000000
        53         1  DOPC      H5S             6.2396524543       -0.4350049095        8.7898815879  MEMB      1               0.0000000000
        54         1  DOPC      C26             6.2338865973       -2.4054426064        7.8552772982  MEMB      1               0.0000000000
        55         1  DOPC      H6R             6.0134819763       -3.4229351157        8.2409922633  MEMB      1               0.0000000000
        56         1  DOPC      H6S             7.1951294690       -2.5056567010        7.2993788271  MEMB      1               0.0000000000
        57         1  DOPC      C27             5.1296163407       -1.8689990947        6.9197273987  MEMB      1               0.0000000000
        58         1  DOPC      H7R             5.1164157350       -2.4943700999        6.0055651362  MEMB      1               0.0000000000
        59         1  DOPC      H7S             5.3738844111       -0.8266112313        6.6106798010  MEMB      1               0.0000000000
        60         1  DOPC      C28             3.6993968642       -1.9277466695        7.4873819461  MEMB      1               0.0000000000
        61         1  DOPC      H8R             3.0039186711       -1.3859381775        6.8106331470  MEMB      1               0.0000000000
        62         1  DOPC      H8S             3.6743281002       -1.3738291469        8.4438057872  MEMB      1               0.0000000000
        63         1  DOPC      C29             3.3002355812       -3.3807433869        7.6318705726  MEMB      1               0.0000000000
        64         1  DOPC      H9R             4.1470355851       -4.0736708767        7.7284554694  MEMB      1               0.0000000000
        65         1  DOPC      C210            2.0796265971       -3.8908507132        7.8473917185  MEMB      1               0.0000000000
        66         1  DOPC      H10R            1.9773231320       -4.9836776890        7.9149614084  MEMB      1               0.0000000000
        67         1  DOPC      C211            0.8137543438       -3.1035764131        8.0041927319  MEMB      1               0.0000000000
        68         1  DOPC      H11R            1.0727782477       -2.0523431341        8.2123195222  MEMB      1               0.0000000000
        69         1  DOPC      H11S            0.3077026487       -3.4775223450        8.9239267372  MEMB      1               0.0000000000
        70         1  DOPC      C212           -0.2598388622       -3.1664815655        6.8989513246  MEMB      1               0.0000000000
        71         1  DOPC      H12R           -1.1088182624       -2.5188133062        7.2096103571  MEMB      1               0.0000000000
        72         1  DOPC      H12S           -0.6459794959       -4.2112595485        6.8717841660  MEMB      1               0.0000000000
        73         1  DOPC      C213            0.1406664996       -2.7785673228        5.4655992100  MEMB      1               0.0000000000
        74         1  DOPC      H13R           -0.6546537906       -3.2471486048        4.8336638363  MEMB      1               0.0000000000
        75         1  DOPC      H13S            1.1089452544       -3.2366110451        5.1827828272  MEMB      1               0.0000000000
        76         1  DOPC      C214            0.1684496379       -1.2691983087        5.1421072092  MEMB      1               0.0000000000
        77         1  DOPC      H14R            1.1986829834       -0.8787274203        5.2989526405  MEMB      1               0.0000000000
        78         1  DOPC      H14S           -0.4912940167       -0.7373542536        5.8554240371  MEMB      1               0.0000000000
        79         1  DOPC      C215           -0.3129915892       -0.9805511856        3.7016833289  MEMB      1               0.0000000000
        80         1  DOPC      H15R           -0.6511891175       -1.9572382596        3.2865829036  MEMB      1               0.0000000000
        81         1  DOPC      H15S            0.5276589821       -0.6540623456        3.0525638246  MEMB      1               0.0000000000
        82         1  DOPC      C216           -1.5309897518       -0.0435087904        3.5550269844  MEMB      1               0.0000000000
        83         1  DOPC      H16R           -1.2787292879        1.0298756491        3.6298976001  MEMB      1               0.0000000000
        84         1  DOPC      H16S           -2.2473970514       -0.2384157262        4.3802233099  MEMB      1               0.0000000000
        85         1  DOPC      C217           -2.2604898838       -0.2977765468        2.2288202867  MEMB      1               0.0000000000
        86         1  DOPC      H17R           -3.3140901982        0.0517172102        2.3187522600  MEMB      1               0.0000000000
        87         1  DOPC      H17S           -2.2684012808       -1.3972721733        2.0393571010  MEMB      1               0.0000000000
        88         1  DOPC      C218           -1.6463933802        0.3756671990        1.0198407566  MEMB      1               0.0000000000
        89         1  DOPC      H18R           -1.7851453590        1.4767851747        1.0574657373  MEMB      1               0.0000000000
        90         1  DOPC      H18S           -2.1211823797       -0.0059771279        0.0874864619  MEMB      1               0.0000000000
        91         1  DOPC      H18T           -0.5574100609        0.1559038755        0.9799725200  MEMB      1               0.0000000000
        92         1  DOPC      C33             4.4663377089        1.6591093006       11.2472546522  MEMB      1               0.0000000000
        93         1  DOPC      H3X             5.2960525519        0.9407125574       11.4302495274  MEMB      1               0.0000000000
        94         1  DOPC      H3Y             4.8103626252        2.6675647389       11.5650991919  MEMB      1               0.0000000000
        95         1  DOPC      C34             4.0867927685        1.6526332624        9.7369716296  MEMB      1               0.0000000000
        96         1  DOPC      H4X             3.1331919736        2.1911321612        9.5874405147  MEMB      1               0.0000000000
        97         1  DOPC      H4Y             3.8728676629        0.5896969925        9.4878908432  MEMB      1               0.0000000000
        98         1  DOPC      C35             5.1212954231        2.1314822666        8.6835073889  MEMB      1               0.0000000000
        99         1  DOPC      H5X             4.8689992689        1.6683774334        7.7036113419  MEMB      1               0.0000000000
       100         1  DOPC      H5Y             6.0980355292        1.6931561013        8.9893587004  MEMB      1               0.0000000000
       101         1  DOPC      C36             5.2864554413        3.6623717202        8.4632600705  MEMB      1               0.0000000000
       102         1  DOPC      H6X             5.3533127251        4.1327954597        9.4700916177  MEMB      1               0.0000000000
       103         1  DOPC      H6Y             6.2515060298        3.8585354905        7.9539748377  MEMB      1               0.0000000000
       104         1  DOPC      C37             4.2261308188        4.4566580099        7.6527713400  MEMB      1               0.0000000000
       105         1  DOPC      H7X             3.2509760524        4.3159027988        8.1552176699  MEMB      1               0.0000000000
       106         1  DOPC      H7Y             4.4804393374        5.5412150804        7.7343298134  MEMB      1               0.0000000000
       107         1  DOPC      C38             3.9937301014        4.1371607310        6.1537145859  MEMB      1               0.0000000000
       108         1  DOPC      H8X             2.9160051826        4.3552760226        5.9674847907  MEMB      1               0.0000000000
       109         1  DOPC      H8Y             4.1175479436        3.0458077009        5.9911297583  MEMB      1               0.0000000000
       110         1  DOPC      C39             4.7499304769        4.9667207433        5.1402098196  MEMB      1               0.0000000000
       111         1  DOPC      H9X             4.6896218753        6.0621712552        5.2539768877  MEMB      1               0.0000000000
       112         1  DOPC      C310            5.3855714920        4.4654123572        4.0709789903  MEMB      1               0.0000000000
       113         1  DOPC      H10X            5.8156608793        5.1500085898        3.3206517175  MEMB      1               0.0000000000
       114         1  DOPC      C311            5.4404922268        3.0022075032        3.7217625654  MEMB      1               0.0000000000
       115         1  DOPC      H11X            4.4047294107        2.6047443167        3.5972439336  MEMB      1               0.0000000000
       116         1  DOPC      H11Y            5.9338087721        2.3961214864        4.5185835610  MEMB      1               0.0000000000
       117         1  DOPC      C312            6.1700456768        2.8349803250        2.3825796072  MEMB      1               0.0000000000
       118         1  DOPC      H12X            7.2361678638        3.1383336997        2.4569529495  MEMB      1               0.0000000000
       119         1  DOPC      H12Y            5.6935086763        3.5338768597        1.6515135593  MEMB      1               0.0000000000
       120         1  DOPC      C313            6.0148752149        1.4141461982        1.8146782886  MEMB      1               0.0000000000
       121         1  DOPC      H13X            6.8839161810        1.1625336997        1.1756771785  MEMB      1               0.0000000000
       122         1  DOPC      H13Y            5.9815812932        0.6812017812        2.6480809344  MEMB      1               0.0000000000
       123         1  DOPC      C314            4.7487884253        1.4291729272        0.9531839977  MEMB      1               0.0000000000
       124         1  DOPC      H14X            3.9053370339        1.7290196642        1.6077457581  MEMB      1               0.0000000000
       125         1  DOPC      H14Y            4.9187188391        2.2580560250        0.2208460495  MEMB      1               0.0000000000
       126         1  DOPC      C315            4.3653433166        0.2450980042        0.0509312904  MEMB      1               0.0000000000
       127         1  DOPC      H15X            5.2566304585       -0.2660657576       -0.3392351287  MEMB      1               0.0000000000
       128         1  DOPC      H15Y            3.8566480987        0.6787797064       -0.8418948171  MEMB      1               0.0000000000
       129         1  DOPC      C316            3.3477438979       -0.7523647652        0.6079750100  MEMB      1               0.0000000000
       130         1  DOPC      H16X            3.7976601028       -1.2318755897        1.4821247311  MEMB      1               0.0000000000
       131         1  DOPC      H16Y            2.4366382986       -0.2480030097        0.9833846062  MEMB      1               0.0000000000
       132         1  DOPC      C317            2.9228633457       -1.7644623148       -0.4714693655  MEMB      1               0.0000000000
       133         1  DOPC      H17X            2.9602239222       -1.2422562038       -1.4539205559  MEMB      1               0.0000000000
       134         1  DOPC      H17Y            3.6732946734       -2.5815420278       -0.5343247738  MEMB      1               0.0000000000
       135         1  DOPC      C318            1.5084252674       -2.3325615545       -0.3029830744  MEMB      1               0.0000000000
       136         1  DOPC      H18X            0.7475492049       -1.5828899676       -0.6040546656  MEMB      1               0.0000000000
       137         1  DOPC      H18Y            1.3644063371       -3.2301541067       -0.9427720958  MEMB      1               0.0000000000
       138         1  DOPC      H18Z            1.3102552220       -2.5999537952        0.7551510430  MEMB      1               0.0000000000
       139         2  DOPC      N              -5.1470426838        4.0593365984       20.1531782702  MEMB      2               0.0000000000
       140         2  DOPC      C12            -4.9568488647        3.6455173183       18.7043826371  MEMB      2               0.0000000000
       141         2  DOPC      H12A           -4.6675331796        4.5094289441       18.1219882741  MEMB      2               0.0000000000
       142         2  DOPC      H12B           -5.9193851743        3.2949838068       18.3201070509  MEMB      2               0.0000000000
       143         2  DOPC      C13            -3.8232999950        4.2827857010       20.8241785044  MEMB      2               0.0000000000
       144         2  DOPC      H13A           -3.9422216771        4.4844127477       21.8865855953  MEMB      2               0.0000000000
       145         2  DOPC      H13B           -3.2252183430        3.3860215148       20.7166243928  MEMB      2               0.0000000000
       146         2  DOPC      H13C           -3.2758893483        5.1295686674       20.4294506252  MEMB      2               0.0000000000
       147         2  DOPC      C14            -5.8885426567        2.9445670695       20.8194588559  MEMB      2               0.0000000000
       148         2  DOPC      H14A           -6.0999151002        3.1489541759       21.8515549190  MEMB      2               0.0000000000
       149         2  DOPC      H14B           -6.8045356916        2.7551531744       20.2618401081  MEMB      2               0.0000000000
       150         2  DOPC      H14C           -5.2964499797        2.0278609693       20.7335178065  MEMB      2               0.0000000000
       151         2  DOPC      C15            -5.9621454162        5.2950464502       20.2114821411  MEMB      2               0.0000000000
       152         2  DOPC      H15A           -6.8271440945        5.2773968396       19.5561202529  MEMB      2               0.0000000000
       153         2  DOPC      H15B           -5.3899041248        6.1637989555       19.8691141302  MEMB      2               0.0000000000
       154         2  DOPC      H15C           -6.2946420307        5.5484824925       21.2081631939  MEMB      2               0.0000000000
       155         2  DOPC      C11            -3.9678688648        2.4834300791       18.4383647056  MEMB      2               0.0000000000
       156         2  DOPC      H11A           -3.9219316127        2.3608719538       17.3304758225  MEMB      2               0.0000000000
       157         2  DOPC      H11B           -2.9489487731        2.7657126299       18.7814501445  MEMB      2               0.0000000000
       158         2  DOPC      P              -5.4513939657        0.3509643660       18.3805039980  MEMB      2               0.0000000000
       159         2  DOPC      O13            -6.5580959772        1.2625080412       18.0120467846  MEMB      2               0.0000000000
       160         2  DOPC      O14            -5.7934262018       -0.7818516247       19.2698536526  MEMB      2               0.0000000000
       161         2  DOPC      O12            -4.3537893371        1.2672008058       19.0891205574  MEMB      2               0.0000000000
       162         2  DOPC      O11            -4.7687798069       -0.1511714744       17.0725476226  MEMB      2               0.0000000000
       163         2  DOPC      C1             -3.7089864439       -1.0962232507       17.1374874514  MEMB      2               0.0000000000
       164         2  DOPC      HA             -3.7974640368       -1.6787266530       16.2143940700  MEMB      2               0.0000000000
       165         2  DOPC      HB             -3.7696536260       -1.7976955761       18.0066810498  MEMB      2               0.0000000000
       166         2  DOPC      C2             -2.3029257984       -0.4920806780       17.1281041917  MEMB      2               0.0000000000
       167         2  DOPC      HS             -2.0723071970       -0.2550388398       18.1967761354  MEMB      2               0.0000000000
       168         2  DOPC      O21            -2.3237989329        0.6887957340       16.3266348717  MEMB      2               0.0000000000
       169         2  DOPC      C21            -1.4262993224        1.5689779295       16.6111937424  MEMB      2               0.0000000000
       170         2  DOPC      O22            -0.5429734571        1.4787135867       17.4455775682  MEMB      2               0.0000000000
       171         2  DOPC      C22            -1.6907379075        2.7411996614       15.6835318500  MEMB      2               0.0000000000
       172         2  DOPC      H2R            -1.4301409862        3.6641692240       16.2364992608  MEMB      2               0.0000000000
       173         2  DOPC      H2S            -2.7732574945        2.7826497835       15.4321283907  MEMB      2               0.0000000000
       174         2  DOPC      C3             -1.2527858054       -1.5128452477       16.6045056420  MEMB      2               0.0000000000
       175         2  DOPC      HX             -1.4490279966       -2.5197759068       17.0414203472  MEMB      2               0.0000000000
       176         2  DOPC      HY             -0.2884138017       -1.1598340159       17.0262114616  MEMB      2               0.0000000000
       177         2  DOPC      O31            -1.0723906428       -1.5669039503       15.1710662745  MEMB      2               0.0000000000
       178         2  DOPC      C31            -1.7892277897       -2.4543899758       14.4748677655  MEMB      2               0.0000000000
       179         2  DOPC      O32            -2.7169796337       -3.1142501824       14.8873035272  MEMB      2               0.0000000000
       180         2  DOPC      C32            -1.2714868132       -2.5776743023       13.0384756210  MEMB      2               0.0000000000
       181         2  DOPC      H2X            -0.6975150220       -1.6666252107       12.7871382701  MEMB      2               0.0000000000
       182         2  DOPC      H2Y            -0.5863794401       -3.4493059516       13.0145895786  MEMB      2               0.0000000000
       183         2  DOPC      C23            -0.8822303417        2.5984819773       14.3863303163  MEMB      2               0.0000000000
       184         2  DOPC      H3R             0.1961972390        2.4165257347       14.6096780624  MEMB      2               0.0000000000
       185         2  DOPC      H3S            -0.9511016779        3.5712287828       13.8415727090  MEMB      2               0.0000000000
       186         2  DOPC      C24            -1.3798193023        1.5250740686       13.4149346320  MEMB      2               0.0000000000
       187         2  DOPC      H4R            -2.4660508754        1.6521422714       13.2215080076  MEMB      2               0.0000000000
       188         2  DOPC      H4S            -1.2222623026        0.5129220321       13.8462224799  MEMB      2               0.0000000000
       189         2  DOPC      C25            -0.5695218132        1.6688327884       12.1253072827  MEMB      2               0.0000000000
       190         2  DOPC      H5R             0.4979562808        1.5358006382       12.4068826302  MEMB      2               0.0000000000
       191         2  DOPC      H5S            -0.6937633130        2.7071434572       11.7462063835  MEMB      2               0.0000000000
       192         2  DOPC      C26            -0.8826004619        0.7102813411       10.9768020029  MEMB      2               0.0000000000
       193         2  DOPC      H6R            -1.7619229230        1.1099372636       10.4317156254  MEMB      2               0.0000000000
       194         2  DOPC      H6S            -1.1600854997       -0.2924503007       11.3524103855  MEMB      2               0.0000000000
       195         2  DOPC      C27             0.3371629466        0.5676917325       10.0488123277  MEMB      2               0.0000000000
       196         2  DOPC      H7R             0.9876189398       -0.2334510153       10.4708440567  MEMB      2               0.0000000000
       197         2  DOPC      H7S             0.9200727196        1.5108620339       10.0597290225  MEMB      2               0.0000000000
       198         2  DOPC      C28             0.0405323260        0.2111290784        8.5861446331  MEMB      2               0.0000000000
       199         2  DOPC      H8R            -0.5384940443       -0.7385506830        8.5846198030  MEMB      2               0.0000000000
       200         2  DOPC      H8S             1.0082404986       -0.0022422597        8.0802160182  MEMB      2               0.0000000000
       201         2  DOPC      C29            -0.6568455585        1.2860045149        7.8047448201  MEMB      2               0.0000000000
       202         2  DOPC      H9R            -0.0035926680        2.0835577161        7.4202626974  MEMB      2               0.0000000000
       203         2  DOPC      C210           -1.9778307986        1.3355178942        7.5757035229  MEMB      2               0.0000000000
       204         2  DOPC      H10R           -2.4066532150        2.1715634504        7.0055179739  MEMB      2               0.0000000000
       205         2  DOPC      C211           -2.9561141682        0.3129565294        8.0790771394  MEMB      2               0.0000000000
       206         2  DOPC      H11R           -3.8457658609        0.8297342770        8.4655566618  MEMB      2               0.0000000000
       207         2  DOPC      H11S           -2.5092059301       -0.2637206393        8.9121966404  MEMB      2               0.0000000000
       208         2  DOPC      C212           -3.3829169947       -0.7018321213        7.0226681580  MEMB      2               0.0000000000
       209         2  DOPC      H12R           -2.4652733141       -0.9754489587        6.4668304979  MEMB      2               0.0000000000
       210         2  DOPC      H12S           -4.0810748155       -0.2247672739        6.3029989298  MEMB      2               0.0000000000
       211         2  DOPC      C213           -3.9940667483       -2.0061507098        7.5744311999  MEMB      2               0.0000000000
       212         2  DOPC      H13R           -5.0436359710       -1.8156646892        7.8925690269  MEMB      2               0.0000000000
       213         2  DOPC      H13S           -3.4261926477       -2.3471030646        8.4679392752  MEMB      2               0.0000000000
       214         2  DOPC      C214           -3.9603652506       -3.1459830293        6.5395755378  MEMB      2               0.0000000000
       215         2  DOPC      H14R           -4.8467497096       -3.7985123403        6.6908512014  MEMB      2               0.0000000000
       216         2  DOPC      H14S           -3.0421316271       -3.7557240550        6.6868844938  MEMB      2               0.0000000000
       217         2  DOPC      C215           -3.9446923774       -2.5987508250        5.1182469360  MEMB      2               0.0000000000
       218         2  DOPC      H15R           -2.9606007848       -2.1303056935        4.9025889636  MEMB      2               0.0000000000
       219         2  DOPC      H15S           -4.7288368048       -1.8104014419        5.0659871458  MEMB      2               0.0000000000
       220         2  DOPC      C216           -4.1800458282       -3.5691870333        3.9740365539  MEMB      2               0.0000000000
       221         2  DOPC      H16R           -4.9351217323       -4.3385865005        4.2370167807  MEMB      2               0.0000000000
       222         2  DOPC      H16S           -3.2237504993       -4.0799131439        3.7171361777  MEMB      2               0.0000000000
       223         2  DOPC      C217           -4.6702338485       -2.7334840901        2.7973376833  MEMB      2               0.0000000000
       224         2  DOPC      H17R           -4.4178711139       -3.2147982888        1.8331076809  MEMB      2               0.0000000000
       225         2  DOPC      H17S           -4.1390289249       -1.7667388382        2.8254339570  MEMB      2               0.0000000000
       226         2  DOPC      C218           -6.1530696175       -2.4124506202        2.8946247570  MEMB      2               0.0000000000
       227         2  DOPC      H18R           -6.5079040013       -1.9857096320        1.9329616771  MEMB      2               0.0000000000
       228         2  DOPC      H18S           -6.3318346568       -1.6728402437        3.6994891221  MEMB      2               0.0000000000
       229         2  DOPC      H18T           -6.7404858544       -3.3217894427        3.1316164006  MEMB      2               0.0000000000
       230         2  DOPC      C33            -2.4331128756       -2.8073361744       12.0376365075  MEMB      2               0.0000000000
       231         2  DOPC      H3X            -2.8431596188       -3.8407203487       12.1470544938  MEMB      2               0.0000000000
       232         2  DOPC      H3Y            -2.0260466389       -2.7098749242       11.0038234686  MEMB      2               0.0000000000
       233         2  DOPC      C34            -3.5694944499       -1.7996587563       12.2635747143  MEMB      2               0.0000000000
       234         2  DOPC      H4X            -3.1297399777       -0.8522450799       12.6556393840  MEMB      2               0.0000000000
       235         2  DOPC      H4Y            -4.2685311038       -2.1889142338       13.0423359819  MEMB      2               0.0000000000
       236         2  DOPC      C35            -4.3746663734       -1.4617718483       11.0124565348  MEMB      2               0.0000000000
       237         2  DOPC      H5X            -4.8503542779       -2.3761700254       10.6032450300  MEMB      2               0.0000000000
       238         2  DOPC      H5Y            -3.6757968991       -1.0902519980       10.2447322705  MEMB      2               0.0000000000
       239         2  DOPC      C36            -5.4065840102       -0.3622411387       11.3038496961  MEMB      2               0.0000000000
       240         2  DOPC      H6X            -6.2413986598       -0.4111046129       10.5691312663  MEMB      2               0.0000000000
       241         2  DOPC      H6Y            -5.8247407844       -0.4941218484       12.3292417877  MEMB      2               0.0000000000
       242         2  DOPC      C37            -4.7458696283        1.0036269157       11.2073285010  MEMB      2               0.0000000000
       243         2  DOPC      H7X            -3.7199568220        0.9420824940       11.6290246220  MEMB      2               0.0000000000
       244         2  DOPC      H7Y            -4.6491429029        1.2118995931       10.1289325418  MEMB      2               0.0000000000
       245         2  DOPC      C38            -5.4995434540        2.1541009153       11.8697205595  MEMB      2               0.0000000000
       246         2  DOPC      H8X            -5.4775048397        2.0330075076       12.9763860902  MEMB      2               0.0000000000
       247         2  DOPC      H8Y            -6.5669300799        2.1352333873       11.5566319094  MEMB      2               0.0000000000
       248         2  DOPC      C39            -4.8037271304        3.4115400999       11.4220658610  MEMB      2               0.0000000000
       249         2  DOPC      H9X            -4.0011971332        3.7736112491       12.0855916389  MEMB      2               0.0000000000
       250         2  DOPC      C310           -4.9783275596        3.9895945467       10.2179463967  MEMB      2               0.0000000000
       251         2  DOPC      H10X           -4.4383202973        4.9239766020       10.0060733940  MEMB      2               0.0000000000
       252         2  DOPC      C311           -5.8869753259        3.5009873792        9.1098337272  MEMB      2               0.0000000000
       253         2  DOPC      H11X           -6.8147095052        4.0905071234        9.1775658797  MEMB      2               0.0000000000
       254         2  DOPC      H11Y           -6.1708129129        2.4358899098        9.2514473254  MEMB      2               0.0000000000
       255         2  DOPC      C312           -5.3170360576        3.6557216785        7.6775197001  MEMB      2               0.0000000000
       256         2  DOPC      H12X           -4.3079227797        3.1900254753        7.6336772187  MEMB      2               0.0000000000
       257         2  DOPC      H12Y           -5.1961488876        4.7427834443        7.4687839603  MEMB      2               0.0000000000
       258         2  DOPC      C313           -6.1604403865        3.0378827173        6.5338608954  MEMB      2               0.0000000000
       259         2  DOPC      H13X           -7.1651704804        3.5081678945        6.5013164999  MEMB      2               0.0000000000
       260         2  DOPC      H13Y           -5.6452483584        3.2755297737        5.5748269631  MEMB      2               0.0000000000
       261         2  DOPC      C314           -6.3258875199        1.5101259691        6.6208903695  MEMB      2               0.0000000000
       262         2  DOPC      H14X           -5.4086454319        1.1103599339        7.0928346025  MEMB      2               0.0000000000
       263         2  DOPC      H14Y           -7.1662875488        1.2691534186        7.3071393920  MEMB      2               0.0000000000
       264         2  DOPC      C315           -6.5416938328        0.7786179641        5.2763454577  MEMB      2               0.0000000000
       265         2  DOPC      H15X           -6.6894530447       -0.3041201900        5.4962011572  MEMB      2               0.0000000000
       266         2  DOPC      H15Y           -5.6307117904        0.8580463121        4.6426017185  MEMB      2               0.0000000000
       267         2  DOPC      C316           -7.7611445575        1.2768174494        4.4857268163  MEMB      2               0.0000000000
       268         2  DOPC      H16X           -8.6198680327        1.3120154223        5.1933485337  MEMB      2               0.0000000000
       269         2  DOPC      H16Y           -7.5885961854        2.3141483107        4.1255247285  MEMB      2               0.0000000000
       270         2  DOPC      C317           -8.1603626939        0.3760876769        3.3002437822  MEMB      2               0.0000000000
       271         2  DOPC      H17X           -8.1541528523       -0.6858917318        3.6197453967  MEMB      2               0.0000000000
       272         2  DOPC      H17Y           -9.2172443759        0.5889521905        3.0329997221  MEMB      2               0.0000000000
       273         2  DOPC      C318           -7.3212366296        0.5686324197        2.0313800865  MEMB      2               0.0000000000
       274         2  DOPC      H18X           -7.6317051189       -0.1480319882        1.2394897687  MEMB      2               0.0000000000
       275         2  DOPC      H18Y           -7.4670996924        1.5924169931        1.6359924802  MEMB      2               0.0000000000
       276         2  DOPC      H18Z           -6.2391293614        0.4177656462        2.2321158016  MEMB      2               0.0000000000
       277         3  DOPC      N              -6.1581974194       -7.3323508352       20.3025223436  MEMB      3               0.0000000000
       278         3  DOPC      C12            -5.4830743635       -8.0991741726       19.1795572344  MEMB      3               0.0000000000
       279         3  DOPC      H12A           -6.2616630237       -8.6073946746       18.6267346798  MEMB      3               0.0000000000
       280         3  DOPC      H12B           -4.7834135741       -8.8024571510       19.6187074146  MEMB      3               0.0000000000
       281         3  DOPC      C13            -6.8423009142       -6.1001455576       19.7888609636  MEMB      3               0.0000000000
       282         3  DOPC      H13A           -6.0793966482       -5.4295981094       19.3752054410  MEMB      3               0.0000000000
       283         3  DOPC      H13B           -7.5276940199       -6.2896383492       18.9726073897  MEMB      3               0.0000000000
       284         3  DOPC      H13C           -7.3156011693       -5.5466321433       20.5850348428  MEMB      3               0.0000000000
       285         3  DOPC      C14            -5.0647682784       -6.8696103398       21.2265918215  MEMB      3               0.0000000000
       286         3  DOPC      H14A           -4.4199253244       -6.1775889477       20.6693558499  MEMB      3               0.0000000000
       287         3  DOPC      H14B           -5.4555927189       -6.3358653813       22.0807036480  MEMB      3               0.0000000000
       288         3  DOPC      H14C           -4.4225570113       -7.6887942360       21.5354198359  MEMB      3               0.0000000000
       289         3  DOPC      C15            -7.1430886662       -8.1603436020       21.0503796699  MEMB      3               0.0000000000
       290         3  DOPC      H15A           -6.6656395314       -9.0119032550       21.5108060724  MEMB      3               0.0000000000
       291         3  DOPC      H15B           -7.9687528066       -8.4883526245       20.4355750797  MEMB      3               0.0000000000
       292         3  DOPC      H15C           -7.5771443172       -7.5655887168       21.8463580198  MEMB      3               0.0000000000
       293         3  DOPC      C11            -4.6337402940       -7.2957930469       18.1621283268  MEMB      3               0.0000000000
       294         3  DOPC      H11A           -4.1914490905       -7.9682404275       17.3960558972  MEMB      3               0.0000000000
       295         3  DOPC      H11B           -5.3323263169       -6.6573566795       17.6197357101  MEMB      3               0.0000000000
       296         3  DOPC      P              -3.5648227247       -4.9311139784       18.4907609860  MEMB      3               0.0000000000
       297         3  DOPC      O13            -2.1803140649       -4.4341061014       18.5885882612  MEMB      3               0.0000000000
       298         3  DOPC      O14            -4.5393483494       -4.3251755578       19.4194602471  MEMB      3               0.0000000000
       299         3  DOPC      O12            -3.6128542491       -6.5100022413       18.7693758989  MEMB      3               0.0000000000
       300         3  DOPC      O11            -4.1594185430       -4.8790159424       17.0196441570  MEMB      3               0.0000000000
       301         3  DOPC      C1             -5.1124993378       -3.8711833718       16.6562410712  MEMB      3               0.0000000000
       302         3  DOPC      HA             -4.7663141745       -3.3924484477       15.7184201300  MEMB      3               0.0000000000
       303         3  DOPC      HB             -5.2209462902       -3.0722333460       17.4233125653  MEMB      3               0.0000000000
       304         3  DOPC      C2             -6.5689081607       -4.2808160354       16.3141176201  MEMB      3               0.0000000000
       305         3  DOPC      HS             -7.1256318368       -4.4311014122       17.2636137823  MEMB      3               0.0000000000
       306         3  DOPC      O21            -6.6049639916       -5.4288711522       15.4478517624  MEMB      3               0.0000000000
       307         3  DOPC      C21            -7.0112595049       -6.5793650687       15.8960651990  MEMB      3               0.0000000000
       308         3  DOPC      O22            -7.4376105346       -6.8295494215       17.0174341374  MEMB      3               0.0000000000
       309         3  DOPC      C22            -6.9306056928       -7.6686372361       14.8074050228  MEMB      3               0.0000000000
       310         3  DOPC      H2R            -7.9678543030       -8.0155453778       14.6186078415  MEMB      3               0.0000000000
       311         3  DOPC      H2S            -6.3604837844       -8.5105808909       15.2517772230  MEMB      3               0.0000000000
       312         3  DOPC      C3             -7.1631185717       -3.0287392179       15.5820026034  MEMB      3               0.0000000000
       313         3  DOPC      HX             -6.7680993395       -2.1235683278       16.1082379419  MEMB      3               0.0000000000
       314         3  DOPC      HY             -8.2659439614       -2.9855153158       15.6650933481  MEMB      3               0.0000000000
       315         3  DOPC      O31            -6.7253089245       -2.9417632054       14.2120834839  MEMB      3               0.0000000000
       316         3  DOPC      C31            -7.4156911189       -3.7026491372       13.3646020920  MEMB      3               0.0000000000
       317         3  DOPC      O32            -8.3669202423       -4.4012748404       13.6604525317  MEMB      3               0.0000000000
       318         3  DOPC      C32            -6.8797763311       -3.4696374188       11.9534047694  MEMB      3               0.0000000000
       319         3  DOPC      H2X            -6.5436003331       -2.4226474546       11.9645401569  MEMB      3               0.0000000000
       320         3  DOPC      H2Y            -6.0085874125       -4.1270027185       11.7662317877  MEMB      3               0.0000000000
       321         3  DOPC      C23            -6.2745372326       -7.2942547759       13.4496521226  MEMB      3               0.0000000000
       322         3  DOPC      H3R            -5.3583161627       -6.6898173291       13.6347664695  MEMB      3               0.0000000000
       323         3  DOPC      H3S            -6.9656157062       -6.6649564817       12.8457083977  MEMB      3               0.0000000000
       324         3  DOPC      C24            -5.8652125240       -8.5553576715       12.6617877943  MEMB      3               0.0000000000
       325         3  DOPC      H4R            -6.7486181084       -8.9609321060       12.1207242919  MEMB      3               0.0000000000
       326         3  DOPC      H4S            -5.5342304414       -9.3242320009       13.3961915669  MEMB      3               0.0000000000
       327         3  DOPC      C25            -4.6930154154       -8.3551820434       11.6826551309  MEMB      3               0.0000000000
       328         3  DOPC      H5R            -4.4035528874       -9.3431186004       11.2555940787  MEMB      3               0.0000000000
       329         3  DOPC      H5S            -3.8142618328       -7.9617277833       12.2440406476  MEMB      3               0.0000000000
       330         3  DOPC      C26            -5.0007177579       -7.4075997654       10.5171461723  MEMB      3               0.0000000000
       331         3  DOPC      H6R            -5.5182926939       -6.5096385779       10.9165056916  MEMB      3               0.0000000000
       332         3  DOPC      H6S            -5.6881098240       -7.9178403176        9.8056312550  MEMB      3               0.0000000000
       333         3  DOPC      C27            -3.7400704773       -6.9349955566        9.7707267973  MEMB      3               0.0000000000
       334         3  DOPC      H7R            -3.2386892041       -7.7957995851        9.2736354772  MEMB      3               0.0000000000
       335         3  DOPC      H7S            -3.0255982347       -6.5215587912       10.5189583824  MEMB      3               0.0000000000
       336         3  DOPC      C28            -4.0469570454       -5.8326721014        8.7431433134  MEMB      3               0.0000000000
       337         3  DOPC      H8R            -3.0928463420       -5.3747475568        8.4009101003  MEMB      3               0.0000000000
       338         3  DOPC      H8S            -4.6236311412       -5.0260872442        9.2514106106  MEMB      3               0.0000000000
       339         3  DOPC      C29            -4.8544800169       -6.3673724699        7.5919172633  MEMB      3               0.0000000000
       340         3  DOPC      H9R            -5.9235877291       -6.5123897712        7.8052838224  MEMB      3               0.0000000000
       341         3  DOPC      C210           -4.4148054776       -6.6830103729        6.3663079435  MEMB      3               0.0000000000
       342         3  DOPC      H10R           -5.1431961992       -7.0505428160        5.6422218706  MEMB      3               0.0000000000
       343         3  DOPC      C211           -3.0286819392       -6.6003821591        5.8057025707  MEMB      3               0.0000000000
       344         3  DOPC      H11R           -2.2569824465       -6.8269274912        6.5756329249  MEMB      3               0.0000000000
       345         3  DOPC      H11S           -2.8127692638       -5.5851337721        5.4054908746  MEMB      3               0.0000000000
       346         3  DOPC      C212           -2.8900206031       -7.5918878190        4.6350347023  MEMB      3               0.0000000000
       347         3  DOPC      H12R           -2.9540915176       -8.6478769820        4.9815345833  MEMB      3               0.0000000000
       348         3  DOPC      H12S           -1.8933057962       -7.3909232916        4.2115847523  MEMB      3               0.0000000000
       349         3  DOPC      C213           -3.8183788827       -7.3600896636        3.4397895652  MEMB      3               0.0000000000
       350         3  DOPC      H13R           -4.0288732170       -6.2705074529        3.3912265922  MEMB      3               0.0000000000
       351         3  DOPC      H13S           -4.7662365105       -7.9050270054        3.6131241734  MEMB      3               0.0000000000
       352         3  DOPC      C214           -3.2441699005       -7.7809530203        2.0792057107  MEMB      3               0.0000000000
       353         3  DOPC      H14R           -2.2944887856       -7.2461936093        1.9037679241  MEMB      3               0.0000000000
       354         3  DOPC      H14S           -3.9308218859       -7.4499331340        1.2716228171  MEMB      3               0.0000000000
       355         3  DOPC      C215           -3.0320275690       -9.2917975491        1.9546843908  MEMB      3               0.0000000000
       356         3  DOPC      H15R           -2.5766631003       -9.6832528578        2.8889124565  MEMB      3               0.0000000000
       357         3  DOPC      H15S           -2.3205270877       -9.5006375723        1.1223233531  MEMB      3               0.0000000000
       358         3  DOPC      C216           -4.3513273673      -10.0106592974        1.6628656842  MEMB      3               0.0000000000
       359         3  DOPC      H16R           -5.1985454173       -9.4341496554        2.0922256129  MEMB      3               0.0000000000
       360         3  DOPC      H16S           -4.3688090312      -11.0029780985        2.1493869777  MEMB      3               0.0000000000
       361         3  DOPC      C217           -4.5634895533      -10.1582707382        0.1587585587  MEMB      3               0.0000000000
       362         3  DOPC      H17R           -3.8714441492      -10.9131012042       -0.2727850060  MEMB      3               0.0000000000
       363         3  DOPC      H17S           -4.3004512945       -9.1672264949       -0.2739172434  MEMB      3               0.0000000000
       364         3  DOPC      C218           -6.0062082608      -10.4490135860       -0.2196729179  MEMB      3               0.0000000000
       365         3  DOPC      H18R           -6.4910869362      -11.2048187991        0.4174690596  MEMB      3               0.0000000000
       366         3  DOPC      H18S           -6.1331190335      -10.7352482475       -1.2848331102  MEMB      3               0.0000000000
       367         3  DOPC      H18T           -6.5510564635       -9.5120736549       -0.0254491520  MEMB      3               0.0000000000
       368         3  DOPC      C33            -7.9076974677       -3.5523319381       10.8041000366  MEMB      3               0.0000000000
       369         3  DOPC      H3X            -7.5533440926       -2.9075524231        9.9660272881  MEMB      3               0.0000000000
       370         3  DOPC      H3Y            -8.8803567126       -3.1284527714       11.1256079607  MEMB      3               0.0000000000
       371         3  DOPC      C34            -8.0613789180       -4.9691026108       10.2489209052  MEMB      3               0.0000000000
       372         3  DOPC      H4X            -8.4835779545       -5.6286218595       11.0392343946  MEMB      3               0.0000000000
       373         3  DOPC      H4Y            -7.0617241126       -5.3684162121        9.9780072058  MEMB      3               0.0000000000
       374         3  DOPC      C35            -8.9625127245       -5.0280230897        9.0119599170  MEMB      3               0.0000000000
       375         3  DOPC      H5X            -8.3777627739       -4.7374486439        8.1104253026  MEMB      3               0.0000000000
       376         3  DOPC      H5Y            -9.7856600978       -4.2878643937        9.1334994474  MEMB      3               0.0000000000
       377         3  DOPC      C36            -9.5796640257       -6.4203148392        8.8182697809  MEMB      3               0.0000000000
       378         3  DOPC      H6X           -10.1222099943       -6.6999793147        9.7509129640  MEMB      3               0.0000000000
       379         3  DOPC      H6Y           -10.3247390650       -6.3800504818        7.9935937524  MEMB      3               0.0000000000
       380         3  DOPC      C37            -8.5439314231       -7.5073230149        8.4981749086  MEMB      3               0.0000000000
       381         3  DOPC      H7X            -7.9662996943       -7.1844155660        7.6048313489  MEMB      3               0.0000000000
       382         3  DOPC      H7Y            -7.8355476905       -7.5942888554        9.3519956047  MEMB      3               0.0000000000
       383         3  DOPC      C38            -9.1909361626       -8.8815500685        8.2339402717  MEMB      3               0.0000000000
       384         3  DOPC      H8X            -9.9553574364       -8.7610387148        7.4334353070  MEMB      3               0.0000000000
       385         3  DOPC      H8Y            -9.7410190906       -9.1749111838        9.1525234303  MEMB      3               0.0000000000
       386         3  DOPC      C39            -8.1925497555       -9.9655254337        7.8943473123  MEMB      3               0.0000000000
       387         3  DOPC      H9X            -7.7630305923      -10.4830494310        8.7654449194  MEMB      3               0.0000000000
       388         3  DOPC      C310           -7.7604360824      -10.3069281776        6.6645042941  MEMB      3               0.0000000000
       389         3  DOPC      H10X           -6.9831211563      -11.0802319316        6.5584339518  MEMB      3               0.0000000000
       390         3  DOPC      C311           -8.1938474683       -9.6609114437        5.3751254624  MEMB      3               0.0000000000
       391         3  DOPC      H11X           -9.2223472015       -9.2427832107        5.4531550881  MEMB      3               0.0000000000
       392         3  DOPC      H11Y           -8.2189344225      -10.3970480080        4.5397622579  MEMB      3               0.0000000000
       393         3  DOPC      C312           -7.2228547597       -8.5179597900        5.0217022160  MEMB      3               0.0000000000
       394         3  DOPC      H12X           -6.3408394531       -8.9670934081        4.5140265218  MEMB      3               0.0000000000
       395         3  DOPC      H12Y           -6.8692426421       -8.0169914428        5.9480799922  MEMB      3               0.0000000000
       396         3  DOPC      C313           -7.8928236933       -7.4777327375        4.1137700232  MEMB      3               0.0000000000
       397         3  DOPC      H13X           -8.2544358798       -8.0726102674        3.2472998523  MEMB      3               0.0000000000
       398         3  DOPC      H13Y           -8.7815384248       -7.0396945752        4.6197672058  MEMB      3               0.0000000000
       399         3  DOPC      C314           -7.0138753634       -6.3422713643        3.5500715589  MEMB      3               0.0000000000
       400         3  DOPC      H14X           -7.5193934433       -5.3673873400        3.7171145151  MEMB      3               0.0000000000
       401         3  DOPC      H14Y           -6.0567726399       -6.2755981756        4.0894130329  MEMB      3               0.0000000000
       402         3  DOPC      C315           -6.7841746850       -6.5887991934        2.0479224391  MEMB      3               0.0000000000
       403         3  DOPC      H15X           -7.7831466373       -6.6656869809        1.5798901429  MEMB      3               0.0000000000
       404         3  DOPC      H15Y           -6.3038769235       -7.5863556462        1.9437657028  MEMB      3               0.0000000000
       405         3  DOPC      C316           -5.9468708431       -5.5727524026        1.2486470315  MEMB      3               0.0000000000
       406         3  DOPC      H16X           -5.2015235281       -5.1039719342        1.9121616450  MEMB      3               0.0000000000
       407         3  DOPC      H16Y           -5.3855969458       -6.1328682125        0.4662378017  MEMB      3               0.0000000000
       408         3  DOPC      C317           -6.8169594818       -4.5513641673        0.5037857610  MEMB      3               0.0000000000
       409         3  DOPC      H17X           -7.6224555133       -5.1303134510        0.0177665838  MEMB      3               0.0000000000
       410         3  DOPC      H17Y           -7.3207130031       -3.9021177826        1.2324147971  MEMB      3               0.0000000000
       411         3  DOPC      C318           -6.1442846466       -3.6583055661       -0.5501426937  MEMB      3               0.0000000000
       412         3  DOPC      H18X           -5.2404757354       -3.1565388695       -0.1534135229  MEMB      3               0.0000000000
       413         3  DOPC      H18Y           -5.8668104613       -4.2501611504       -1.4465542050  MEMB      3               0.0000000000
       414         3  DOPC      H18Z           -6.8484677423       -2.8594563974       -0.8719805372  MEMB      3               0.0000000000
       415         4  DOPC      N               3.9806326275        9.6416321445       18.6065172790  MEMB      4               0.0000000000
       416         4  DOPC      C12             4.1928296979        8.1335336909       18.4337677012  MEMB      4               0.0000000000
       417         4  DOPC      H12A            5.2351307301        7.9617099878       18.1940524951  MEMB      4               0.0000000000
       418         4  DOPC      H12B            3.5804548721        7.8203792095       17.5896068768  MEMB      4               0.0000000000
       419         4  DOPC      C13             4.6384708274       10.4314044154       17.5091701697  MEMB      4               0.0000000000
       420         4  DOPC      H13A            4.5446300209       11.5023229392       17.6854058098  MEMB      4               0.0000000000
       421         4  DOPC      H13B            5.7147873003       10.2288828838       17.4611113409  MEMB      4               0.0000000000
       422         4  DOPC      H13C            4.2337301119       10.2384870560       16.5254557643  MEMB      4               0.0000000000
       423         4  DOPC      C14             4.5394197996       10.1432874814       19.8989860923  MEMB      4               0.0000000000
       424         4  DOPC      H14A            4.1557076082        9.5532882655       20.7259628717  MEMB      4               0.0000000000
       425         4  DOPC      H14B            5.6215704273       10.1262354798       19.8735661074  MEMB      4               0.0000000000
       426         4  DOPC      H14C            4.2348098030       11.1818378333       20.0692773997  MEMB      4               0.0000000000
       427         4  DOPC      C15             2.5215418233        9.9154615666       18.6135883162  MEMB      4               0.0000000000
       428         4  DOPC      H15A            2.3291175122       10.9865113550       18.6956608481  MEMB      4               0.0000000000
       429         4  DOPC      H15B            2.0447298479        9.3577703090       19.4165481041  MEMB      4               0.0000000000
       430         4  DOPC      H15C            2.0730543872        9.5740223513       17.6878415941  MEMB      4               0.0000000000
       431         4  DOPC      C11             3.8210156502        7.1380115636       19.5735430615  MEMB      4               0.0000000000
       432         4  DOPC      H11A            4.1437598583        6.1109748499       19.2708994311  MEMB      4               0.0000000000
       433         4  DOPC      H11B            4.4105097716        7.3894487225       20.4805048200  MEMB      4               0.0000000000
       434         4  DOPC      P               1.3851053053        6.0630767959       19.4583951781  MEMB      4               0.0000000000
       435         4  DOPC      O13             0.0471557224        6.6348002971       19.7048311829  MEMB      4               0.0000000000
       436         4  DOPC      O14             1.7178836655        4.7709665359       20.0839256387  MEMB      4               0.0000000000
       437         4  DOPC      O12             2.4374691724        7.1752954535       19.8900572888  MEMB      4               0.0000000000
       438         4  DOPC      O11             1.6118536718        5.9470424061       17.9210337335  MEMB      4               0.0000000000
       439         4  DOPC      C1              2.1681560482        4.7537890490       17.3833533992  MEMB      4               0.0000000000
       440         4  DOPC      HA              1.4655636087        3.8897332362       17.5058347512  MEMB      4               0.0000000000
       441         4  DOPC      HB              3.1255327139        4.4735435347       17.8771684571  MEMB      4               0.0000000000
       442         4  DOPC      C2              2.3645239045        5.0175206905       15.8836034715  MEMB      4               0.0000000000
       443         4  DOPC      HS              2.7355476452        4.0705653129       15.4217241854  MEMB      4               0.0000000000
       444         4  DOPC      O21             3.2454678389        6.1208110072       15.5876154909  MEMB      4               0.0000000000
       445         4  DOPC      C21             4.5012028737        5.9789510249       15.9120596580  MEMB      4               0.0000000000
       446         4  DOPC      O22             4.9890690850        5.0080588852       16.4675561462  MEMB      4               0.0000000000
       447         4  DOPC      C22             5.2659181852        7.1949419729       15.3690057158  MEMB      4               0.0000000000
       448         4  DOPC      H2R             6.3479029768        6.9861574718       15.4755233068  MEMB      4               0.0000000000
       449         4  DOPC      H2S             5.0228975876        8.0826990009       15.9789929493  MEMB      4               0.0000000000
       450         4  DOPC      C3              0.9920251076        5.4041301308       15.2690166560  MEMB      4               0.0000000000
       451         4  DOPC      HX              0.5703116492        6.2274097524       15.8859647626  MEMB      4               0.0000000000
       452         4  DOPC      HY              0.2911442145        4.5613417127       15.3522115473  MEMB      4               0.0000000000
       453         4  DOPC      O31             1.1023331256        5.9047672998       13.9259364262  MEMB      4               0.0000000000
       454         4  DOPC      C31             1.6841815895        5.0605771116       13.0905484687  MEMB      4               0.0000000000
       455         4  DOPC      O32             1.8006189429        3.8639944685       13.2720013853  MEMB      4               0.0000000000
       456         4  DOPC      C32             2.2360416190        5.8605717793       11.9184171534  MEMB      4               0.0000000000
       457         4  DOPC      H2X             1.5199657052        6.6734447118       11.6769123028  MEMB      4               0.0000000000
       458         4  DOPC      H2Y             3.1777864810        6.3096892398       12.2778452413  MEMB      4               0.0000000000
       459         4  DOPC      C23             4.9340135278        7.5170944952       13.8865436450  MEMB      4               0.0000000000
       460         4  DOPC      H3R             3.8363507617        7.6880655132       13.7758729266  MEMB      4               0.0000000000
       461         4  DOPC      H3S             5.2235435316        6.6563495460       13.2431359378  MEMB      4               0.0000000000
       462         4  DOPC      C24             5.6505868557        8.7853163600       13.4070931706  MEMB      4               0.0000000000
       463         4  DOPC      H4R             6.6758009934        8.8050972701       13.8427631593  MEMB      4               0.0000000000
       464         4  DOPC      H4S             5.0998029531        9.6686224903       13.8046189090  MEMB      4               0.0000000000
       465         4  DOPC      C25             5.7836113664        8.9325937890       11.8812101753  MEMB      4               0.0000000000
       466         4  DOPC      H5R             6.5031070413        8.1823680683       11.4856179659  MEMB      4               0.0000000000
       467         4  DOPC      H5S             6.2073815207        9.9451395102       11.6796810447  MEMB      4               0.0000000000
       468         4  DOPC      C26             4.4632330677        8.8149378074       11.1169241329  MEMB      4               0.0000000000
       469         4  DOPC      H6R             3.7454064587        9.5541824689       11.5411588549  MEMB      4               0.0000000000
       470         4  DOPC      H6S             4.0256213923        7.8068663044       11.2445756577  MEMB      4               0.0000000000
       471         4  DOPC      C27             4.6164426328        9.0652083340        9.6096769566  MEMB      4               0.0000000000
       472         4  DOPC      H7R             4.7900976330        8.0965206608        9.0874262202  MEMB      4               0.0000000000
       473         4  DOPC      H7S             5.5113032463        9.7022379921        9.4290624074  MEMB      4               0.0000000000
       474         4  DOPC      C28             3.4003935063        9.7778192617        9.0019079434  MEMB      4               0.0000000000
       475         4  DOPC      H8R             3.5760476988        9.8895688936        7.9096684936  MEMB      4               0.0000000000
       476         4  DOPC      H8S             3.3472987478       10.8077393519        9.4127124651  MEMB      4               0.0000000000
       477         4  DOPC      C29             2.1046445787        9.0708920798        9.2976432609  MEMB      4               0.0000000000
       478         4  DOPC      H9R             1.5814276172        9.3928632580       10.2126850311  MEMB      4               0.0000000000
       479         4  DOPC      C210            1.5310034813        8.1546011070        8.5118492140  MEMB      4               0.0000000000
       480         4  DOPC      H10R            0.4990666544        7.8409197456        8.7320223755  MEMB      4               0.0000000000
       481         4  DOPC      C211            2.0697197469        7.6668495198        7.1948809060  MEMB      4               0.0000000000
       482         4  DOPC      H11R            1.6381677605        6.6690275781        6.9505640991  MEMB      4               0.0000000000
       483         4  DOPC      H11S            3.1759973400        7.5445647609        7.2130604901  MEMB      4               0.0000000000
       484         4  DOPC      C212            1.6680712876        8.6860459639        6.1111828421  MEMB      4               0.0000000000
       485         4  DOPC      H12R            1.8517094996        8.2340818497        5.1138815110  MEMB      4               0.0000000000
       486         4  DOPC      H12S            2.3153043527        9.5908280647        6.1910511514  MEMB      4               0.0000000000
       487         4  DOPC      C213            0.2071850867        9.1520534989        6.2625013626  MEMB      4               0.0000000000
       488         4  DOPC      H13R            0.1790149845        9.9191155616        7.0750522248  MEMB      4               0.0000000000
       489         4  DOPC      H13S           -0.4329965295        8.3043841986        6.5921945848  MEMB      4               0.0000000000
       490         4  DOPC      C214           -0.4221905743        9.7974164916        5.0284074823  MEMB      4               0.0000000000
       491         4  DOPC      H14R            0.1546136920       10.7179082746        4.7846954828  MEMB      4               0.0000000000
       492         4  DOPC      H14S           -1.4467362653       10.1088561691        5.3178544564  MEMB      4               0.0000000000
       493         4  DOPC      C215           -0.5233610104        8.9082110083        3.7785117610  MEMB      4               0.0000000000
       494         4  DOPC      H15R            0.5000256961        8.7424720732        3.3766953571  MEMB      4               0.0000000000
       495         4  DOPC      H15S           -1.1032060449        9.4666508413        3.0105544706  MEMB      4               0.0000000000
       496         4  DOPC      C216           -1.2010771535        7.5416437459        3.9710761178  MEMB      4               0.0000000000
       497         4  DOPC      H16R           -2.2783494311        7.6775554687        4.2042631406  MEMB      4               0.0000000000
       498         4  DOPC      H16S           -0.7360669603        7.0201951629        4.8362577746  MEMB      4               0.0000000000
       499         4  DOPC      C217           -1.0370721226        6.6431179763        2.7325530053  MEMB      4               0.0000000000
       500         4  DOPC      H17R           -0.0756243820        6.1103790780        2.8576066920  MEMB      4               0.0000000000
       501         4  DOPC      H17S           -0.9022610744        7.2589851012        1.8232226837  MEMB      4               0.0000000000
       502         4  DOPC      C218           -2.1926184709        5.6738284927        2.4554052848  MEMB      4               0.0000000000
       503         4  DOPC      H18R           -2.8189102098        5.5306671841        3.3580686482  MEMB      4               0.0000000000
       504         4  DOPC      H18S           -1.8262083858        4.6782505653        2.1265401640  MEMB      4               0.0000000000
       505         4  DOPC      H18T           -2.8358442143        6.0625949273        1.6377976266  MEMB      4               0.0000000000
       506         4  DOPC      C33             2.5558216923        5.0383584702       10.6575082071  MEMB      4               0.0000000000
       507         4  DOPC      H3X             3.4374695048        4.3826407400       10.8243199754  MEMB      4               0.0000000000
       508         4  DOPC      H3Y             2.8265428434        5.7571003917        9.8467808571  MEMB      4               0.0000000000
       509         4  DOPC      C34             1.3651773558        4.2081707272       10.1864443085  MEMB      4               0.0000000000
       510         4  DOPC      H4X             1.1342153996        3.4240196079       10.9350362884  MEMB      4               0.0000000000
       511         4  DOPC      H4Y             1.6238469392        3.6779851414        9.2432935199  MEMB      4               0.0000000000
       512         4  DOPC      C35             0.1305974630        5.0695954175        9.9337862502  MEMB      4               0.0000000000
       513         4  DOPC      H5X             0.4710447602        6.0073642232        9.4592788183  MEMB      4               0.0000000000
       514         4  DOPC      H5Y            -0.3812321058        5.3243735769       10.8851789413  MEMB      4               0.0000000000
       515         4  DOPC      C36            -0.8261129116        4.3846535165        8.9711730898  MEMB      4               0.0000000000
       516         4  DOPC      H6X            -0.2522858682        4.1311540930        8.0696607725  MEMB      4               0.0000000000
       517         4  DOPC      H6Y            -1.1569322880        3.4252275137        9.4222124629  MEMB      4               0.0000000000
       518         4  DOPC      C37            -2.0428002210        5.2287274114        8.5961857811  MEMB      4               0.0000000000
       519         4  DOPC      H7X            -2.9237367609        4.5592143374        8.6421545635  MEMB      4               0.0000000000
       520         4  DOPC      H7Y            -2.1902031036        5.9939388497        9.3813161281  MEMB      4               0.0000000000
       521         4  DOPC      C38            -1.9779705499        5.8783024967        7.1994029514  MEMB      4               0.0000000000
       522         4  DOPC      H8X            -0.9563542453        6.2750613106        7.0208428702  MEMB      4               0.0000000000
       523         4  DOPC      H8Y            -2.6692333070        6.7500886938        7.1982747393  MEMB      4               0.0000000000
       524         4  DOPC      C39            -2.4131596744        4.9194571075        6.1181834131  MEMB      4               0.0000000000
       525         4  DOPC      H9X            -3.5056551765        4.9160882975        5.9587910762  MEMB      4               0.0000000000
       526         4  DOPC      C310           -1.6331595761        4.1683799554        5.3070633940  MEMB      4               0.0000000000
       527         4  DOPC      H10X           -2.1406301700        3.4889305321        4.6056721649  MEMB      4               0.0000000000
       528         4  DOPC      C311           -0.1163321024        4.1040290294        5.2808456162  MEMB      4               0.0000000000
       529         4  DOPC      H11X            0.2886728522        4.3018926149        6.2892065137  MEMB      4               0.0000000000
       530         4  DOPC      H11Y            0.2941924715        4.9544355407        4.7045685976  MEMB      4               0.0000000000
       531         4  DOPC      C312            0.5684506089        2.7761857742        4.8391855238  MEMB      4               0.0000000000
       532         4  DOPC      H12X           -0.0568181228        1.9084281338        5.1386518140  MEMB      4               0.0000000000
       533         4  DOPC      H12Y            1.4979085156        2.6912447699        5.4483549759  MEMB      4               0.0000000000
       534         4  DOPC      C313            1.0368975098        2.5974918203        3.3690780143  MEMB      4               0.0000000000
       535         4  DOPC      H13X            2.0089307433        2.0556146476        3.3910112212  MEMB      4               0.0000000000
       536         4  DOPC      H13Y            0.3252470708        1.9387898280        2.8279103677  MEMB      4               0.0000000000
       537         4  DOPC      C314            1.1633377892        3.8727111707        2.5213232905  MEMB      4               0.0000000000
       538         4  DOPC      H14X            0.1166909896        4.1725004708        2.3200305764  MEMB      4               0.0000000000
       539         4  DOPC      H14Y            1.6730034251        4.6727935554        3.1019441725  MEMB      4               0.0000000000
       540         4  DOPC      C315            1.8614069100        3.7767374423        1.1492842913  MEMB      4               0.0000000000
       541         4  DOPC      H15X            2.9378473546        4.0357069391        1.2798104554  MEMB      4               0.0000000000
       542         4  DOPC      H15Y            1.4379523415        4.5589874734        0.4721004707  MEMB      4               0.0000000000
       543         4  DOPC      C316            1.7919989124        2.4066219324        0.4567947573  MEMB      4               0.0000000000
       544         4  DOPC      H16X            2.7102923931        2.2938330546       -0.1550865682  MEMB      4               0.0000000000
       545         4  DOPC      H16Y            1.7397663026        1.5775907335        1.1762515525  MEMB      4               0.0000000000
       546         4  DOPC      C317            0.6959212465        2.2953725185       -0.5731062250  MEMB      4               0.0000000000
       547         4  DOPC      H17X           -0.2535389744        2.5256154467       -0.0602355808  MEMB      4               0.0000000000
       548         4  DOPC      H17Y            0.9937393327        3.1332209155       -1.2279265260  MEMB      4               0.0000000000
       549         4  DOPC      C318            0.6086291561        0.9768524307       -1.3557194895  MEMB      4               0.0000000000
       550         4  DOPC      H18X           -0.2816499182        0.3866335825       -1.0754892980  MEMB      4               0.0000000000
       551         4  DOPC      H18Y            0.5234230674        1.1184620872       -2.4496644947  MEMB      4               0.0000000000
       552         4  DOPC      H18Z            1.4972006027        0.3519397742       -1.1551701767  MEMB      4               0.0000000000
       553         5  DOPC      N               4.4612881689       -7.2664407832       19.2064189817  MEMB      5               0.0000000000
       554         5  DOPC      C12             4.5511802172       -8.3273973340       20.3052468401  MEMB      5               0.0000000000
       555         5  DOPC      H12A            4.2240903542       -7.8658132322       21.2292876265  MEMB      5               0.0000000000
       556         5  DOPC      H12B            5.5897532837       -8.6107241134       20.4305438358  MEMB      5               0.0000000000
       557         5  DOPC      C13             3.0491189884       -6.7742371279       19.1294168930  MEMB      5               0.0000000000
       558         5  DOPC      H13A            2.7515584107       -6.3057453819       20.0617007170  MEMB      5               0.0000000000
       559         5  DOPC      H13B            2.8564756783       -6.0443384359       18.3494720201  MEMB      5               0.0000000000
       560         5  DOPC      H13C            2.3808996389       -7.6275938166       19.0169082170  MEMB      5               0.0000000000
       561         5  DOPC      C14             4.8827011552       -7.8497525911       17.9010504136  MEMB      5               0.0000000000
       562         5  DOPC      H14A            4.9884668389       -7.0753149776       17.1367144393  MEMB      5               0.0000000000
       563         5  DOPC      H14B            5.8454695726       -8.3432628348       17.9582673719  MEMB      5               0.0000000000
       564         5  DOPC      H14C            4.1478556091       -8.5752958401       17.5405172726  MEMB      5               0.0000000000
       565         5  DOPC      C15             5.3160754122       -6.0848355741       19.5491756929  MEMB      5               0.0000000000
       566         5  DOPC      H15A            5.1735397148       -5.2872785319       18.8199726207  MEMB      5               0.0000000000
       567         5  DOPC      H15B            6.3604132405       -6.3532484128       19.5797289326  MEMB      5               0.0000000000
       568         5  DOPC      H15C            5.0075909095       -5.6694974154       20.5026070180  MEMB      5               0.0000000000
       569         5  DOPC      C11             3.6929010184       -9.6181128105       20.1718195624  MEMB      5               0.0000000000
       570         5  DOPC      H11A            4.0024163738      -10.1538491532       19.2386214892  MEMB      5               0.0000000000
       571         5  DOPC      H11B            3.9310767107      -10.2882342035       21.0325133059  MEMB      5               0.0000000000
       572         5  DOPC      P               1.2637796499      -10.3290540156       19.6054782222  MEMB      5               0.0000000000
       573         5  DOPC      O13            -0.0870555440       -9.7418133983       19.5016874134  MEMB      5               0.0000000000
       574         5  DOPC      O14             1.3475866710      -11.5776009706       20.3773269783  MEMB      5               0.0000000000
       575         5  DOPC      O12             2.2912723195       -9.3052444674       20.2098441907  MEMB      5               0.0000000000
       576         5  DOPC      O11             1.8504297279      -10.5315476695       18.1787292896  MEMB      5               0.0000000000
       577         5  DOPC      C1              1.7076776146       -9.5735635119       17.1502866062  MEMB      5               0.0000000000
       578         5  DOPC      HA              2.0903262411       -8.5743532919       17.4404761280  MEMB      5               0.0000000000
       579         5  DOPC      HB              0.6346867661       -9.4911395204       16.8604882480  MEMB      5               0.0000000000
       580         5  DOPC      C2              2.5214824779      -10.1264306117       15.9796289530  MEMB      5               0.0000000000
       581         5  DOPC      HS              2.2105400045      -11.1970156530       15.9320012382  MEMB      5               0.0000000000
       582         5  DOPC      O21             3.9322802707       -9.9392909912       16.2011182209  MEMB      5               0.0000000000
       583         5  DOPC      C21             4.5789984510      -11.0685055679       16.0437313861  MEMB      5               0.0000000000
       584         5  DOPC      O22             4.1271553610      -12.1898931413       16.1692015830  MEMB      5               0.0000000000
       585         5  DOPC      C22             5.9518680069      -10.8025768973       15.4681631755  MEMB      5               0.0000000000
       586         5  DOPC      H2R             6.6194366593      -11.5689249066       15.9229450819  MEMB      5               0.0000000000
       587         5  DOPC      H2S             6.3380108267       -9.8064466329       15.7474571330  MEMB      5               0.0000000000
       588         5  DOPC      C3              2.1720526042       -9.5148243440       14.6164805032  MEMB      5               0.0000000000
       589         5  DOPC      HX              1.0627076848       -9.5398575812       14.5183561806  MEMB      5               0.0000000000
       590         5  DOPC      HY              2.5859023007      -10.1702613424       13.8167064207  MEMB      5               0.0000000000
       591         5  DOPC      O31             2.7606337029       -8.2065518754       14.5272354589  MEMB      5               0.0000000000
       592         5  DOPC      C31             1.9242824387       -7.2274682699       14.2751072168  MEMB      5               0.0000000000
       593         5  DOPC      O32             0.7451994579       -7.3509210873       13.9983131211  MEMB      5               0.0000000000
       594         5  DOPC      C32             2.6825517770       -5.9202201846       14.3307294713  MEMB      5               0.0000000000
       595         5  DOPC      H2X             2.0464949616       -5.1674586085       13.8200382251  MEMB      5               0.0000000000
       596         5  DOPC      H2Y             2.8182451074       -5.6527463048       15.3999680009  MEMB      5               0.0000000000
       597         5  DOPC      C23             5.9470425437      -11.0436473848       13.9361196717  MEMB      5               0.0000000000
       598         5  DOPC      H3R             5.3675122089      -11.9503303309       13.6543856882  MEMB      5               0.0000000000
       599         5  DOPC      H3S             7.0064417235      -11.2562244249       13.7001890173  MEMB      5               0.0000000000
       600         5  DOPC      C24             5.5521109779       -9.8369342698       13.0693151113  MEMB      5               0.0000000000
       601         5  DOPC      H4R             6.0707235700       -8.9466176122       13.4895942510  MEMB      5               0.0000000000
       602         5  DOPC      H4S             4.4678617796       -9.6238362368       13.1188337965  MEMB      5               0.0000000000
       603         5  DOPC      C25             5.9836095645      -10.0014200422       11.5984071663  MEMB      5               0.0000000000
       604         5  DOPC      H5R             6.9238999452      -10.5887043299       11.5538298610  MEMB      5               0.0000000000
       605         5  DOPC      H5S             6.2241621211       -9.0019861929       11.1743631299  MEMB      5               0.0000000000
       606         5  DOPC      C26             4.9206028086      -10.6322822879       10.6830932508  MEMB      5               0.0000000000
       607         5  DOPC      H6R             4.0435367193       -9.9459585275       10.6538087167  MEMB      5               0.0000000000
       608         5  DOPC      H6S             4.5723244447      -11.6061609211       11.0885860928  MEMB      5               0.0000000000
       609         5  DOPC      C27             5.4346411931      -10.8315688385        9.2444585493  MEMB      5               0.0000000000
       610         5  DOPC      H7R             5.9106663108      -11.8315764200        9.1474472641  MEMB      5               0.0000000000
       611         5  DOPC      H7S             6.2328560647      -10.0754435997        9.0572991021  MEMB      5               0.0000000000
       612         5  DOPC      C28             4.3633927572      -10.6188130608        8.1541560602  MEMB      5               0.0000000000
       613         5  DOPC      H8R             4.8562991210      -10.7267124518        7.1607051580  MEMB      5               0.0000000000
       614         5  DOPC      H8S             4.0098737735       -9.5673306191        8.2126152889  MEMB      5               0.0000000000
       615         5  DOPC      C29             3.2014961756      -11.5671701001        8.2063463014  MEMB      5               0.0000000000
       616         5  DOPC      H9R             3.4964683301      -12.6223809281        8.2546601520  MEMB      5               0.0000000000
       617         5  DOPC      C210            1.8993196954      -11.2434678223        8.3173111143  MEMB      5               0.0000000000
       618         5  DOPC      H10R            1.1499382668      -12.0481974158        8.2872356597  MEMB      5               0.0000000000
       619         5  DOPC      C211            1.3387745289       -9.8491131121        8.4201962251  MEMB      5               0.0000000000
       620         5  DOPC      H11R            1.9126997126       -9.3114864395        9.2100904297  MEMB      5               0.0000000000
       621         5  DOPC      H11S            0.2825574555       -9.8791234540        8.7720477867  MEMB      5               0.0000000000
       622         5  DOPC      C212            1.4178883836       -8.9809084282        7.1495733550  MEMB      5               0.0000000000
       623         5  DOPC      H12R            2.3885572600       -9.1354646856        6.6284684640  MEMB      5               0.0000000000
       624         5  DOPC      H12S            1.3879927035       -7.9190109895        7.4855275349  MEMB      5               0.0000000000
       625         5  DOPC      C213            0.2744576830       -9.1971541662        6.1521182492  MEMB      5               0.0000000000
       626         5  DOPC      H13R           -0.6980735052       -8.9643650411        6.6435645618  MEMB      5               0.0000000000
       627         5  DOPC      H13S            0.2465113504      -10.2700525273        5.8510514546  MEMB      5               0.0000000000
       628         5  DOPC      C214            0.4168244278       -8.3556041782        4.8678674442  MEMB      5               0.0000000000
       629         5  DOPC      H14R           -0.4469230331       -8.6268145047        4.2328454697  MEMB      5               0.0000000000
       630         5  DOPC      H14S            1.2989355833       -8.6985593831        4.2901667557  MEMB      5               0.0000000000
       631         5  DOPC      C215            0.5404986617       -6.8276581645        5.0800923667  MEMB      5               0.0000000000
       632         5  DOPC      H15R            1.3625252566       -6.6511005342        5.8110055163  MEMB      5               0.0000000000
       633         5  DOPC      H15S           -0.3691803366       -6.3909465395        5.5358175165  MEMB      5               0.0000000000
       634         5  DOPC      C216            0.9477621558       -6.0112322288        3.8342928191  MEMB      5               0.0000000000
       635         5  DOPC      H16R            1.9449686269       -6.3683942176        3.5395423175  MEMB      5               0.0000000000
       636         5  DOPC      H16S            1.0472945845       -4.9447434135        4.1223490193  MEMB      5               0.0000000000
       637         5  DOPC      C217            0.1023092122       -6.0702217761        2.5552393541  MEMB      5               0.0000000000
       638         5  DOPC      H17R            0.4389124559       -5.2099488590        1.9253897978  MEMB      5               0.0000000000
       639         5  DOPC      H17S           -0.9670076503       -5.8972437738        2.7887642406  MEMB      5               0.0000000000
       640         5  DOPC      C218            0.3146006480       -7.3338833654        1.7127601696  MEMB      5               0.0000000000
       641         5  DOPC      H18R           -0.1509152914       -8.2222221923        2.1854184084  MEMB      5               0.0000000000
       642         5  DOPC      H18S            1.3938072240       -7.5362690649        1.5896377124  MEMB      5               0.0000000000
       643         5  DOPC      H18T           -0.1192766345       -7.2086429038        0.6994604403  MEMB      5               0.0000000000
       644         5  DOPC      C33             4.0735342257       -5.9867016463       13.6801719092  MEMB      5               0.0000000000
       645         5  DOPC      H3X             4.6844853644       -6.8144450197       14.1047141311  MEMB      5               0.0000000000
       646         5  DOPC      H3Y             4.6127790334       -5.0393374526       13.9154325191  MEMB      5               0.0000000000
       647         5  DOPC      C34             3.9776545177       -6.1383559973       12.1645477396  MEMB      5               0.0000000000
       648         5  DOPC      H4X             3.3300588849       -5.3259215148       11.7598829647  MEMB      5               0.0000000000
       649         5  DOPC      H4Y             3.4978165032       -7.1046346812       11.8872110888  MEMB      5               0.0000000000
       650         5  DOPC      C35             5.3567491062       -6.0498625350       11.5149610533  MEMB      5               0.0000000000
       651         5  DOPC      H5X             5.8933711477       -7.0142867351       11.6401368179  MEMB      5               0.0000000000
       652         5  DOPC      H5Y             5.9799993354       -5.2688992837       12.0044060573  MEMB      5               0.0000000000
       653         5  DOPC      C36             5.2192937235       -5.7246127059       10.0366043454  MEMB      5               0.0000000000
       654         5  DOPC      H6X             4.4148034351       -4.9695517616        9.9041190012  MEMB      5               0.0000000000
       655         5  DOPC      H6Y             6.1581675106       -5.2598074983        9.6673271063  MEMB      5               0.0000000000
       656         5  DOPC      C37             4.8636456393       -6.9832417120        9.2471720851  MEMB      5               0.0000000000
       657         5  DOPC      H7X             4.6419097099       -7.8136545126        9.9526546186  MEMB      5               0.0000000000
       658         5  DOPC      H7Y             3.9130532168       -6.7883840346        8.7103532786  MEMB      5               0.0000000000
       659         5  DOPC      C38             5.9889337192       -7.4322514950        8.2976607599  MEMB      5               0.0000000000
       660         5  DOPC      H8X             5.6767149505       -8.3428827378        7.7471475080  MEMB      5               0.0000000000
       661         5  DOPC      H8Y             6.8769316679       -7.7078881330        8.9094183519  MEMB      5               0.0000000000
       662         5  DOPC      C39             6.3296021958       -6.3483969679        7.3181496959  MEMB      5               0.0000000000
       663         5  DOPC      H9X             7.2826317630       -5.8267209868        7.4974330187  MEMB      5               0.0000000000
       664         5  DOPC      C310            5.5557599788       -5.9934676295        6.2826954936  MEMB      5               0.0000000000
       665         5  DOPC      H10X            5.8422692250       -5.1020479191        5.7071933560  MEMB      5               0.0000000000
       666         5  DOPC      C311            4.2254457589       -6.6148678427        5.9253415459  MEMB      5               0.0000000000
       667         5  DOPC      H11X            3.4999645136       -5.8087176939        5.6751714517  MEMB      5               0.0000000000
       668         5  DOPC      H11Y            3.7760240605       -7.1515535306        6.7838244334  MEMB      5               0.0000000000
       669         5  DOPC      C312            4.2768764311       -7.6578640011        4.7778470073  MEMB      5               0.0000000000
       670         5  DOPC      H12X            3.2806132314       -8.1486146592        4.7538903412  MEMB      5               0.0000000000
       671         5  DOPC      H12Y            5.0300174925       -8.4401110820        5.0040586784  MEMB      5               0.0000000000
       672         5  DOPC      C313            4.5418994887       -6.9709930326        3.4318941485  MEMB      5               0.0000000000
       673         5  DOPC      H13X            3.8330421565       -6.1286955026        3.4703208976  MEMB      5               0.0000000000
       674         5  DOPC      H13Y            5.5633001916       -6.5398103246        3.4357511789  MEMB      5               0.0000000000
       675         5  DOPC      C314            4.3044252119       -7.6957421765        2.0847515608  MEMB      5               0.0000000000
       676         5  DOPC      H14X            4.9339511508       -8.6059510216        2.0240039144  MEMB      5               0.0000000000
       677         5  DOPC      H14Y            3.2564345095       -8.0337605668        1.9924559900  MEMB      5               0.0000000000
       678         5  DOPC      C315            4.6519547749       -6.7473448014        0.9090850844  MEMB      5               0.0000000000
       679         5  DOPC      H15X            5.6861972344       -6.3745513353        1.0939346704  MEMB      5               0.0000000000
       680         5  DOPC      H15Y            3.9711752164       -5.8709640554        0.8853242681  MEMB      5               0.0000000000
       681         5  DOPC      C316            4.6588911345       -7.3477287849       -0.5007282702  MEMB      5               0.0000000000
       682         5  DOPC      H16X            5.0328661376       -8.3781884423       -0.4218602144  MEMB      5               0.0000000000
       683         5  DOPC      H16Y            3.6307829590       -7.3695078101       -0.9310788207  MEMB      5               0.0000000000
       684         5  DOPC      C317            5.5427057793       -6.5361591674       -1.4537638198  MEMB      5               0.0000000000
       685         5  DOPC      H17X            5.0761116069       -6.4935774297       -2.4640516878  MEMB      5               0.0000000000
       686         5  DOPC      H17Y            5.5142892675       -5.4984270915       -1.0664244579  MEMB      5               0.0000000000
       687         5  DOPC      C318            7.0058184856       -6.9873345437       -1.6076516574  MEMB      5               0.0000000000
       688         5  DOPC      H18X            7.6338583869       -6.5749440806       -0.7850656616  MEMB      5               0.0000000000
       689         5  DOPC      H18Y            7.0936750610       -8.0902037023       -1.6169585122  MEMB      5               0.0000000000
       690         5  DOPC      H18Z            7.4223634629       -6.6072050331       -2.5701303066  MEMB      5               0.0000000000
       691         6  DOPC      N              11.8836303983       -3.1315081622       21.1870770389  MEMB      6               0.0000000000
       692         6  DOPC      C12            10.5311672209       -3.6822070215       20.8055193987  MEMB      6               0.0000000000
       693         6  DOPC      H12A           10.2181129889       -4.3779813880       21.5562290913  MEMB      6               0.0000000000
       694         6  DOPC      H12B           10.6200731018       -4.2282348134       19.8637282048  MEMB      6               0.0000000000
       695         6  DOPC      C13            11.7671442413       -2.2001615010       22.3271659033  MEMB      6               0.0000000000
       696         6  DOPC      H13A           12.6792920249       -1.6006333337       22.3893360138  MEMB      6               0.0000000000
       697         6  DOPC      H13B           10.9625873960       -1.4816777572       22.1595231610  MEMB      6               0.0000000000
       698         6  DOPC      H13C           11.6037119116       -2.7047976674       23.2714335728  MEMB      6               0.0000000000
       699         6  DOPC      C14            12.4124973572       -2.3230789121       20.0357781054  MEMB      6               0.0000000000
       700         6  DOPC      H14A           12.1543470230       -2.7873530318       19.0849333598  MEMB      6               0.0000000000
       701         6  DOPC      H14B           11.9130408703       -1.3598674698       20.0208642438  MEMB      6               0.0000000000
       702         6  DOPC      H14C           13.4869566444       -2.1778880576       20.1043172612  MEMB      6               0.0000000000
       703         6  DOPC      C15            12.8795535736       -4.1590511374       21.6148492890  MEMB      6               0.0000000000
       704         6  DOPC      H15A           12.9445698826       -5.0147900297       20.9597489860  MEMB      6               0.0000000000
       705         6  DOPC      H15B           12.7650051519       -4.4700387568       22.6430866047  MEMB      6               0.0000000000
       706         6  DOPC      H15C           13.8816248466       -3.7150436689       21.5454255191  MEMB      6               0.0000000000
       707         6  DOPC      C11             9.3887810416       -2.6722475671       20.5424978318  MEMB      6               0.0000000000
       708         6  DOPC      H11A            8.4159183515       -3.2166888288       20.4497680345  MEMB      6               0.0000000000
       709         6  DOPC      H11B            9.2705901638       -1.9745775381       21.3971756676  MEMB      6               0.0000000000
       710         6  DOPC      P               9.5117495747       -2.6078225605       17.9586301129  MEMB      6               0.0000000000
       711         6  DOPC      O13             9.5469343374       -4.0802731995       18.1761498527  MEMB      6               0.0000000000
       712         6  DOPC      O14            10.5323357910       -1.9984344869       17.0821346476  MEMB      6               0.0000000000
       713         6  DOPC      O12             9.6726905153       -1.9242913926       19.3685874303  MEMB      6               0.0000000000
       714         6  DOPC      O11             8.0481287420       -2.0738732543       17.6492116272  MEMB      6               0.0000000000
       715         6  DOPC      C1              6.9076868396       -2.9184068744       17.5289486990  MEMB      6               0.0000000000
       716         6  DOPC      HA              6.0177879768       -2.3500142471       17.8772172051  MEMB      6               0.0000000000
       717         6  DOPC      HB              6.9806475524       -3.8270744121       18.1667943020  MEMB      6               0.0000000000
       718         6  DOPC      C2              6.5989556236       -3.3287654016       16.0607732715  MEMB      6               0.0000000000
       719         6  DOPC      HS              5.5721306148       -3.7654491387       16.0445948338  MEMB      6               0.0000000000
       720         6  DOPC      O21             7.5566378330       -4.2703745905       15.5949843779  MEMB      6               0.0000000000
       721         6  DOPC      C21             7.4160933717       -5.5293775344       15.8914991536  MEMB      6               0.0000000000
       722         6  DOPC      O22             6.4310318986       -6.0549402226       16.3859110025  MEMB      6               0.0000000000
       723         6  DOPC      C22             8.7622199547       -6.2154439925       15.6182444495  MEMB      6               0.0000000000
       724         6  DOPC      H2R             9.1793288759       -6.4340446488       16.6237166582  MEMB      6               0.0000000000
       725         6  DOPC      H2S             9.4495043155       -5.4998465493       15.1196363512  MEMB      6               0.0000000000
       726         6  DOPC      C3              6.5894755927       -2.1409448630       15.0556618257  MEMB      6               0.0000000000
       727         6  DOPC      HX              5.9886088157       -1.3121262717       15.4863540198  MEMB      6               0.0000000000
       728         6  DOPC      HY              6.0619247122       -2.5006011976       14.1513014463  MEMB      6               0.0000000000
       729         6  DOPC      O31             7.9016091175       -1.6400548738       14.7268796760  MEMB      6               0.0000000000
       730         6  DOPC      C31             8.5483576153       -2.2779376007       13.7548595388  MEMB      6               0.0000000000
       731         6  DOPC      O32             8.1061248163       -3.1965436441       13.0844317642  MEMB      6               0.0000000000
       732         6  DOPC      C32             9.8256835109       -1.4835803265       13.4830586128  MEMB      6               0.0000000000
       733         6  DOPC      H2X             9.5527263741       -0.4061151684       13.5133528788  MEMB      6               0.0000000000
       734         6  DOPC      H2Y            10.5315823047       -1.6761235519       14.3165060760  MEMB      6               0.0000000000
       735         6  DOPC      C23             8.6935261935       -7.5243421593       14.8007541059  MEMB      6               0.0000000000
       736         6  DOPC      H3R             8.0070266264       -8.2451877318       15.2953740398  MEMB      6               0.0000000000
       737         6  DOPC      H3S             9.7151337314       -7.9703421456       14.8150891507  MEMB      6               0.0000000000
       738         6  DOPC      C24             8.2882288639       -7.3774040944       13.3225547882  MEMB      6               0.0000000000
       739         6  DOPC      H4R             7.3212379100       -6.8352731491       13.2627430514  MEMB      6               0.0000000000
       740         6  DOPC      H4S             8.1430882646       -8.3981617099       12.8993937440  MEMB      6               0.0000000000
       741         6  DOPC      C25             9.3224368021       -6.6648259199       12.4489340970  MEMB      6               0.0000000000
       742         6  DOPC      H5R            10.2989111928       -7.1918541858       12.5451219822  MEMB      6               0.0000000000
       743         6  DOPC      H5S             9.4612092584       -5.6289929796       12.8324350711  MEMB      6               0.0000000000
       744         6  DOPC      C26             8.9426497567       -6.5896404019       10.9583419059  MEMB      6               0.0000000000
       745         6  DOPC      H6R             7.9930778445       -6.0256784372       10.8424330594  MEMB      6               0.0000000000
       746         6  DOPC      H6S             8.8029749110       -7.6114052135       10.5405118570  MEMB      6               0.0000000000
       747         6  DOPC      C27            10.0553932230       -5.8660780107       10.1939704468  MEMB      6               0.0000000000
       748         6  DOPC      H7R            10.9623470684       -6.5053419227       10.2703063179  MEMB      6               0.0000000000
       749         6  DOPC      H7S            10.2457593345       -4.9124663681       10.7439415183  MEMB      6               0.0000000000
       750         6  DOPC      C28             9.7905048424       -5.5412457432        8.7173717703  MEMB      6               0.0000000000
       751         6  DOPC      H8R             8.8877551669       -4.8981389057        8.6311825524  MEMB      6               0.0000000000
       752         6  DOPC      H8S             9.6101934080       -6.4817489308        8.1475245882  MEMB      6               0.0000000000
       753         6  DOPC      C29            11.0288436338       -4.8270605646        8.2378486199  MEMB      6               0.0000000000
       754         6  DOPC      H9R            11.6639567871       -4.4304256250        9.0434852055  MEMB      6               0.0000000000
       755         6  DOPC      C210           11.3981480132       -4.6094841046        6.9711147608  MEMB      6               0.0000000000
       756         6  DOPC      H10R           12.3460677652       -4.0921270011        6.7560993944  MEMB      6               0.0000000000
       757         6  DOPC      C211           10.5947030335       -5.0519557859        5.7884741431  MEMB      6               0.0000000000
       758         6  DOPC      H11R           10.0894520180       -6.0298613096        5.9549624179  MEMB      6               0.0000000000
       759         6  DOPC      H11S           11.2212589513       -5.1413231866        4.8718106302  MEMB      6               0.0000000000
       760         6  DOPC      C212            9.5186014307       -3.9887431646        5.6303598201  MEMB      6               0.0000000000
       761         6  DOPC      H12R            9.9875596110       -3.0124965623        5.3869379072  MEMB      6               0.0000000000
       762         6  DOPC      H12S            8.9671507014       -3.8068848219        6.5768539689  MEMB      6               0.0000000000
       763         6  DOPC      C213            8.4752845379       -4.3737951621        4.5963890537  MEMB      6               0.0000000000
       764         6  DOPC      H13R            7.9736650174       -5.3206111780        4.8817194497  MEMB      6               0.0000000000
       765         6  DOPC      H13S            8.9521552233       -4.5740306933        3.6303463036  MEMB      6               0.0000000000
       766         6  DOPC      C214            7.4866258017       -3.2251393573        4.4811788201  MEMB      6               0.0000000000
       767         6  DOPC      H14R            7.9958527443       -2.2534442069        4.3168440363  MEMB      6               0.0000000000
       768         6  DOPC      H14S            6.9848666247       -3.1442758799        5.4541847520  MEMB      6               0.0000000000
       769         6  DOPC      C215            6.4088566997       -3.4270200479        3.4394584308  MEMB      6               0.0000000000
       770         6  DOPC      H15R            5.8681349409       -4.3460838613        3.7548869493  MEMB      6               0.0000000000
       771         6  DOPC      H15S            6.8216171293       -3.6181760052        2.4259639816  MEMB      6               0.0000000000
       772         6  DOPC      C216            5.4494323677       -2.2333209307        3.4519088398  MEMB      6               0.0000000000
       773         6  DOPC      H16R            5.6023383599       -1.5803344962        2.5795512595  MEMB      6               0.0000000000
       774         6  DOPC      H16S            5.6732150784       -1.5658489465        4.3079478925  MEMB      6               0.0000000000
       775         6  DOPC      C217            4.0004544458       -2.7097217899        3.4642238373  MEMB      6               0.0000000000
       776         6  DOPC      H17R            3.3200464371       -1.8312850454        3.4315933263  MEMB      6               0.0000000000
       777         6  DOPC      H17S            3.7893980126       -3.2576792335        4.4095435552  MEMB      6               0.0000000000
       778         6  DOPC      C218            3.7458889769       -3.6370974991        2.2781556405  MEMB      6               0.0000000000
       779         6  DOPC      H18R            4.2002844484       -4.6098103108        2.4775708592  MEMB      6               0.0000000000
       780         6  DOPC      H18S            4.2711637138       -3.2906886851        1.3646969357  MEMB      6               0.0000000000
       781         6  DOPC      H18T            2.6668050007       -3.7715555674        2.0687130832  MEMB      6               0.0000000000
       782         6  DOPC      C33            10.4879197043       -1.7717721788       12.1218703544  MEMB      6               0.0000000000
       783         6  DOPC      H3X            11.0014643098       -2.7583045001       12.1375116276  MEMB      6               0.0000000000
       784         6  DOPC      H3Y            11.2666198962       -0.9861934065       11.9801063849  MEMB      6               0.0000000000
       785         6  DOPC      C34             9.5225887694       -1.7053715125       10.9278780558  MEMB      6               0.0000000000
       786         6  DOPC      H4X             8.7267743697       -0.9526738768       11.1043858135  MEMB      6               0.0000000000
       787         6  DOPC      H4Y             9.0234987289       -2.7012517777       10.8340100484  MEMB      6               0.0000000000
       788         6  DOPC      C35            10.2614606388       -1.4296859050        9.6192416899  MEMB      6               0.0000000000
       789         6  DOPC      H5X             9.9117493257       -2.1380108018        8.8341208244  MEMB      6               0.0000000000
       790         6  DOPC      H5Y            11.3128609684       -1.7319301218        9.7988214172  MEMB      6               0.0000000000
       791         6  DOPC      C36            10.1135607819       -0.0196070121        8.9889071687  MEMB      6               0.0000000000
       792         6  DOPC      H6X            11.0759353622        0.2181431300        8.5072257546  MEMB      6               0.0000000000
       793         6  DOPC      H6Y             9.4024373701       -0.0937808694        8.1404370575  MEMB      6               0.0000000000
       794         6  DOPC      C37             9.7267109025        1.2159868058        9.8325651379  MEMB      6               0.0000000000
       795         6  DOPC      H7X             8.6913852770        1.1044566486       10.2306729355  MEMB      6               0.0000000000
       796         6  DOPC      H7Y            10.4001392248        1.3094669326       10.7142520553  MEMB      6               0.0000000000
       797         6  DOPC      C38             9.8408261376        2.5177209824        8.9863082293  MEMB      6               0.0000000000
       798         6  DOPC      H8X            10.8009216548        2.5116660084        8.4295911804  MEMB      6               0.0000000000
       799         6  DOPC      H8Y             9.8827568693        3.3852165959        9.6864648833  MEMB      6               0.0000000000
       800         6  DOPC      C39             8.6628222593        2.6901005059        8.0605590978  MEMB      6               0.0000000000
       801         6  DOPC      H9X             7.7440611077        2.8376432193        8.6359964818  MEMB      6               0.0000000000
       802         6  DOPC      C310            8.5589868880        2.7452779105        6.7125772221  MEMB      6               0.0000000000
       803         6  DOPC      H10X            7.5455931281        2.8555952322        6.2900370871  MEMB      6               0.0000000000
       804         6  DOPC      C311            9.6194104161        2.6527627094        5.6429614049  MEMB      6               0.0000000000
       805         6  DOPC      H11X           10.3653699709        3.4612314768        5.8087412391  MEMB      6               0.0000000000
       806         6  DOPC      H11Y            9.1496718014        2.8764585840        4.6563326157  MEMB      6               0.0000000000
       807         6  DOPC      C312           10.3822865151        1.3134475275        5.5011627824  MEMB      6               0.0000000000
       808         6  DOPC      H12X           10.8806071057        1.1020531243        6.4706334424  MEMB      6               0.0000000000
       809         6  DOPC      H12Y           11.1895675294        1.4368058458        4.7442714811  MEMB      6               0.0000000000
       810         6  DOPC      C313            9.5155378046        0.1011669107        5.1018435833  MEMB      6               0.0000000000
       811         6  DOPC      H13X           10.0018097973       -0.8320367459        5.4527874292  MEMB      6               0.0000000000
       812         6  DOPC      H13Y            8.5351400090        0.1965292941        5.6242251804  MEMB      6               0.0000000000
       813         6  DOPC      C314            9.2524362920       -0.0245325130        3.5906991573  MEMB      6               0.0000000000
       814         6  DOPC      H14X            8.2040227742       -0.3504631147        3.4176624128  MEMB      6               0.0000000000
       815         6  DOPC      H14Y            9.3172864883        1.0106685299        3.1718900253  MEMB      6               0.0000000000
       816         6  DOPC      C315           10.2160653856       -0.9217958357        2.7540641391  MEMB      6               0.0000000000
       817         6  DOPC      H15X           11.2721757005       -0.6523002970        2.9583553324  MEMB      6               0.0000000000
       818         6  DOPC      H15Y            9.9165698371       -0.6023197186        1.7357735702  MEMB      6               0.0000000000
       819         6  DOPC      C316           10.0700159091       -2.4692746157        2.6837141663  MEMB      6               0.0000000000
       820         6  DOPC      H16X           10.5364491559       -2.9153392708        3.5725160033  MEMB      6               0.0000000000
       821         6  DOPC      H16Y            8.9906144690       -2.6975676697        2.6075453266  MEMB      6               0.0000000000
       822         6  DOPC      C317           10.6928556880       -3.2328003522        1.4852063688  MEMB      6               0.0000000000
       823         6  DOPC      H17X           10.1771406980       -2.8487145570        0.5837476650  MEMB      6               0.0000000000
       824         6  DOPC      H17Y           11.7665657043       -2.9589536520        1.4152651686  MEMB      6               0.0000000000
       825         6  DOPC      C318           10.5851239330       -4.7809347680        1.4319945732  MEMB      6               0.0000000000
       826         6  DOPC      H18X           11.5761107231       -5.2518270235        1.6008927878  MEMB      6               0.0000000000
       827         6  DOPC      H18Y            9.9000930430       -5.2123162546        2.1750956310  MEMB      6               0.0000000000
       828         6  DOPC      H18Z           10.2121096560       -5.1228561045        0.4401534165  MEMB      6               0.0000000000
       829         7  DOPC      N              -4.2467544405       12.6679184310       20.0201470886  MEMB      7               0.0000000000
       830         7  DOPC      C12            -5.0396710491       12.2771431801       18.7794586116  MEMB      7               0.0000000000
       831         7  DOPC      H12A           -4.4556606176       11.4993055728       18.2707807409  MEMB      7               0.0000000000
       832         7  DOPC      H12B           -5.0951370745       13.1096764608       18.1004099122  MEMB      7               0.0000000000
       833         7  DOPC      C13            -3.8878080546       11.4026951896       20.7370157968  MEMB      7               0.0000000000
       834         7  DOPC      H13A           -3.3720254634       11.5759588709       21.6789610631  MEMB      7               0.0000000000
       835         7  DOPC      H13B           -4.7979977508       10.8366802112       20.9398689695  MEMB      7               0.0000000000
       836         7  DOPC      H13C           -3.2843061771       10.7732296984       20.0919827897  MEMB      7               0.0000000000
       837         7  DOPC      C14            -5.0099440982       13.5459091628       20.9506814184  MEMB      7               0.0000000000
       838         7  DOPC      H14A           -5.8756249464       13.0165984735       21.3305697338  MEMB      7               0.0000000000
       839         7  DOPC      H14B           -4.4009647886       13.7756287646       21.8281375533  MEMB      7               0.0000000000
       840         7  DOPC      H14C           -5.2875197710       14.4806793426       20.4855128893  MEMB      7               0.0000000000
       841         7  DOPC      C15            -2.9787343846       13.3384914173       19.5954421740  MEMB      7               0.0000000000
       842         7  DOPC      H15A           -3.1324641335       14.3902004091       19.4093431643  MEMB      7               0.0000000000
       843         7  DOPC      H15B           -2.5830011683       12.8535584631       18.7129400677  MEMB      7               0.0000000000
       844         7  DOPC      H15C           -2.2241784577       13.2529458446       20.3812921291  MEMB      7               0.0000000000
       845         7  DOPC      C11            -6.4439685076       11.6354137854       18.9432777393  MEMB      7               0.0000000000
       846         7  DOPC      H11A           -7.0745836860       12.2633373162       19.6045468652  MEMB      7               0.0000000000
       847         7  DOPC      H11B           -6.9462833173       11.6292849133       17.9456243854  MEMB      7               0.0000000000
       848         7  DOPC      P              -5.7499044778        9.1502121898       18.5710392869  MEMB      7               0.0000000000
       849         7  DOPC      O13            -5.8154968049        7.8784758446       19.3148976454  MEMB      7               0.0000000000
       850         7  DOPC      O14            -4.3980796084        9.6194690110       18.2206003865  MEMB      7               0.0000000000
       851         7  DOPC      O12            -6.3745840784       10.3094944768       19.4793959252  MEMB      7               0.0000000000
       852         7  DOPC      O11            -6.5899393032        9.1362624794       17.2316588137  MEMB      7               0.0000000000
       853         7  DOPC      C1             -8.0142353455        9.1528367565       17.2288103032  MEMB      7               0.0000000000
       854         7  DOPC      HA             -8.4367554684       10.0258761907       17.7758646208  MEMB      7               0.0000000000
       855         7  DOPC      HB             -8.3830492263        8.2469747035       17.7524959811  MEMB      7               0.0000000000
       856         7  DOPC      C2             -8.6137587424        9.1430983121       15.7806976818  MEMB      7               0.0000000000
       857         7  DOPC      HS             -9.6567875820        8.7645093201       15.8737980719  MEMB      7               0.0000000000
       858         7  DOPC      O21            -7.8797618304        8.3181889683       14.8504414154  MEMB      7               0.0000000000
       859         7  DOPC      C21            -7.5791646546        7.0902398770       15.2174450221  MEMB      7               0.0000000000
       860         7  DOPC      O22            -8.0300411055        6.4428420468       16.1374191261  MEMB      7               0.0000000000
       861         7  DOPC      C22            -6.5891591550        6.4656154020       14.2310053843  MEMB      7               0.0000000000
       862         7  DOPC      H2R            -7.1819488940        5.8780240067       13.5020557550  MEMB      7               0.0000000000
       863         7  DOPC      H2S            -5.9818451556        5.7603227146       14.8389271588  MEMB      7               0.0000000000
       864         7  DOPC      C3             -8.7176938519       10.5877672878       15.1627875846  MEMB      7               0.0000000000
       865         7  DOPC      HX             -9.4151611762       11.1572322623       15.8198914817  MEMB      7               0.0000000000
       866         7  DOPC      HY             -9.1997988143       10.4936777022       14.1635022468  MEMB      7               0.0000000000
       867         7  DOPC      O31            -7.4334656206       11.2539170753       15.0323976402  MEMB      7               0.0000000000
       868         7  DOPC      C31            -7.4479747406       12.5785621806       14.9448001826  MEMB      7               0.0000000000
       869         7  DOPC      O32            -8.4416591188       13.2829288580       14.8795861151  MEMB      7               0.0000000000
       870         7  DOPC      C32            -6.0111187440       13.0707786416       15.1928664248  MEMB      7               0.0000000000
       871         7  DOPC      H2X            -6.0806734699       13.8507469798       15.9751507992  MEMB      7               0.0000000000
       872         7  DOPC      H2Y            -5.4075306744       12.2230715737       15.5843881245  MEMB      7               0.0000000000
       873         7  DOPC      C23            -5.6452045090        7.4418535121       13.4854219870  MEMB      7               0.0000000000
       874         7  DOPC      H3R            -5.0436419492        8.0031025864       14.2361954952  MEMB      7               0.0000000000
       875         7  DOPC      H3S            -6.2235745570        8.1837151517       12.8906454872  MEMB      7               0.0000000000
       876         7  DOPC      C24            -4.7116474150        6.6397795026       12.5652290027  MEMB      7               0.0000000000
       877         7  DOPC      H4R            -5.2921743715        6.2805843081       11.6882737779  MEMB      7               0.0000000000
       878         7  DOPC      H4S            -4.3886623337        5.7448506348       13.1465096144  MEMB      7               0.0000000000
       879         7  DOPC      C25            -3.4273867724        7.3532788215       12.1104744104  MEMB      7               0.0000000000
       880         7  DOPC      H5R            -2.6321222137        6.5804691279       11.9852717845  MEMB      7               0.0000000000
       881         7  DOPC      H5S            -3.0962833227        8.0599730793       12.9041079759  MEMB      7               0.0000000000
       882         7  DOPC      C26            -3.5693146073        8.0944123709       10.7708972001  MEMB      7               0.0000000000
       883         7  DOPC      H6R            -4.2163593042        8.9764102192       10.9483435439  MEMB      7               0.0000000000
       884         7  DOPC      H6S            -4.0626558100        7.4283896612       10.0268122533  MEMB      7               0.0000000000
       885         7  DOPC      C27            -2.2363650267        8.6122929261       10.2073071041  MEMB      7               0.0000000000
       886         7  DOPC      H7R            -1.5244936499        7.7644592374       10.1162504994  MEMB      7               0.0000000000
       887         7  DOPC      H7S            -1.7936376774        9.3150465710       10.9477186009  MEMB      7               0.0000000000
       888         7  DOPC      C28            -2.3389152499        9.3064232473        8.8290908148  MEMB      7               0.0000000000
       889         7  DOPC      H8R            -2.7135677852        8.5922468283        8.0697205329  MEMB      7               0.0000000000
       890         7  DOPC      H8S            -1.3030595164        9.5853223971        8.5430348128  MEMB      7               0.0000000000
       891         7  DOPC      C29            -3.1825559138       10.5488646816        8.8591949616  MEMB      7               0.0000000000
       892         7  DOPC      H9R            -3.2947809941       10.9634228527        9.8675322144  MEMB      7               0.0000000000
       893         7  DOPC      C210           -3.7960765647       11.1746078911        7.8354364996  MEMB      7               0.0000000000
       894         7  DOPC      H10R           -4.3750398030       12.0809735624        8.0611812308  MEMB      7               0.0000000000
       895         7  DOPC      C211           -3.7940164292       10.7871395258        6.3796091317  MEMB      7               0.0000000000
       896         7  DOPC      H11R           -3.5732617251        9.7025526802        6.2421204267  MEMB      7               0.0000000000
       897         7  DOPC      H11S           -3.0019041310       11.3643451225        5.8556807952  MEMB      7               0.0000000000
       898         7  DOPC      C212           -5.0978734885       11.0846382707        5.6143100856  MEMB      7               0.0000000000
       899         7  DOPC      H12R           -5.8853156901       10.3902266431        5.9451076371  MEMB      7               0.0000000000
       900         7  DOPC      H12S           -4.9040025414       10.8208302069        4.5591425480  MEMB      7               0.0000000000
       901         7  DOPC      C213           -5.5561162323       12.5530239405        5.6521053918  MEMB      7               0.0000000000
       902         7  DOPC      H13R           -4.6826139737       13.1943892924        5.4001139884  MEMB      7               0.0000000000
       903         7  DOPC      H13S           -5.8860939114       12.8257101897        6.6796061425  MEMB      7               0.0000000000
       904         7  DOPC      C214           -6.6979472559       12.8911314011        4.6746328058  MEMB      7               0.0000000000
       905         7  DOPC      H14R           -6.8218221042       13.9989724244        4.6678320028  MEMB      7               0.0000000000
       906         7  DOPC      H14S           -7.6375750049       12.4441840126        5.0603778908  MEMB      7               0.0000000000
       907         7  DOPC      C215           -6.4963741826       12.4121607958        3.2275072240  MEMB      7               0.0000000000
       908         7  DOPC      H15R           -7.3990077736       12.6327761143        2.6276602754  MEMB      7               0.0000000000
       909         7  DOPC      H15S           -6.3837676828       11.3114295574        3.2018130442  MEMB      7               0.0000000000
       910         7  DOPC      C216           -5.3044185056       13.1012092343        2.5689233218  MEMB      7               0.0000000000
       911         7  DOPC      H16R           -4.3913537864       12.8605558656        3.1650702381  MEMB      7               0.0000000000
       912         7  DOPC      H16S           -5.4806220269       14.1922285007        2.6220202785  MEMB      7               0.0000000000
       913         7  DOPC      C217           -5.0413052419       12.6986613996        1.1171087548  MEMB      7               0.0000000000
       914         7  DOPC      H17R           -5.3818463061       11.6536388873        0.9576148316  MEMB      7               0.0000000000
       915         7  DOPC      H17S           -3.9316522914       12.7148387051        1.0016378517  MEMB      7               0.0000000000
       916         7  DOPC      C218           -5.6145803984       13.5963398470        0.0170084938  MEMB      7               0.0000000000
       917         7  DOPC      H18R           -5.0410927608       13.4232661398       -0.9200497936  MEMB      7               0.0000000000
       918         7  DOPC      H18S           -5.4884366561       14.6644318367        0.2469675007  MEMB      7               0.0000000000
       919         7  DOPC      H18T           -6.6913510377       13.4240338164       -0.1617902892  MEMB      7               0.0000000000
       920         7  DOPC      C33            -5.3101613467       13.6581139788       13.9501662105  MEMB      7               0.0000000000
       921         7  DOPC      H3X            -4.3784163783       14.1843654245       14.2553707156  MEMB      7               0.0000000000
       922         7  DOPC      H3Y            -5.9777539548       14.4025388397       13.4628791266  MEMB      7               0.0000000000
       923         7  DOPC      C34            -4.9125424462       12.5631543147       12.9616695648  MEMB      7               0.0000000000
       924         7  DOPC      H4X            -5.8243042023       11.9981515845       12.7164652004  MEMB      7               0.0000000000
       925         7  DOPC      H4Y            -4.2526119956       11.8034751484       13.4361729524  MEMB      7               0.0000000000
       926         7  DOPC      C35            -4.2377894653       13.0671609968       11.6763092379  MEMB      7               0.0000000000
       927         7  DOPC      H5X            -4.3436370340       12.2720872424       10.9105439541  MEMB      7               0.0000000000
       928         7  DOPC      H5Y            -3.1481003377       13.1861092679       11.8877930604  MEMB      7               0.0000000000
       929         7  DOPC      C36            -4.7442500046       14.3875845617       11.0622969080  MEMB      7               0.0000000000
       930         7  DOPC      H6X            -4.5454253693       15.2285874313       11.7632704768  MEMB      7               0.0000000000
       931         7  DOPC      H6Y            -4.1032540514       14.5739021138       10.1680965848  MEMB      7               0.0000000000
       932         7  DOPC      C37            -6.2147197375       14.4574412905       10.5879393156  MEMB      7               0.0000000000
       933         7  DOPC      H7X            -6.8796080897       14.8213554097       11.4035209353  MEMB      7               0.0000000000
       934         7  DOPC      H7Y            -6.2270951951       15.2559056867        9.8057229540  MEMB      7               0.0000000000
       935         7  DOPC      C38            -6.8068672665       13.1737094521        9.9495049171  MEMB      7               0.0000000000
       936         7  DOPC      H8X            -6.0182458390       12.6855941241        9.3382644056  MEMB      7               0.0000000000
       937         7  DOPC      H8Y            -7.5928893772       13.5065127543        9.2369114878  MEMB      7               0.0000000000
       938         7  DOPC      C39            -7.4711236114       12.2268209742       10.9264234466  MEMB      7               0.0000000000
       939         7  DOPC      H9X            -8.0810300605       12.7246410777       11.6995029854  MEMB      7               0.0000000000
       940         7  DOPC      C310           -7.3895290980       10.8824767524       10.9752571827  MEMB      7               0.0000000000
       941         7  DOPC      H10X           -7.9205998898       10.3493037694       11.7825556779  MEMB      7               0.0000000000
       942         7  DOPC      C311           -6.6071021405        9.9846755308       10.0556358949  MEMB      7               0.0000000000
       943         7  DOPC      H11X           -6.1458621010        9.1720595108       10.6515981645  MEMB      7               0.0000000000
       944         7  DOPC      H11Y           -5.7997313551       10.5281081474        9.5275837681  MEMB      7               0.0000000000
       945         7  DOPC      C312           -7.4931858373        9.3065986214        9.0097544496  MEMB      7               0.0000000000
       946         7  DOPC      H12X           -8.3811068190        8.8916738765        9.5352097733  MEMB      7               0.0000000000
       947         7  DOPC      H12Y           -6.9453616142        8.4654403015        8.5271438165  MEMB      7               0.0000000000
       948         7  DOPC      C313           -7.9895471546       10.2639248468        7.9244687515  MEMB      7               0.0000000000
       949         7  DOPC      H13X           -8.4311148563       11.1292977657        8.4533291427  MEMB      7               0.0000000000
       950         7  DOPC      H13Y           -7.1421079992       10.6770869817        7.3605693409  MEMB      7               0.0000000000
       951         7  DOPC      C314           -9.0370739124        9.5711140281        7.0378398412  MEMB      7               0.0000000000
       952         7  DOPC      H14X           -9.1548465135        8.5652461250        7.4854412449  MEMB      7               0.0000000000
       953         7  DOPC      H14Y          -10.0253410058       10.0600573933        7.1398618922  MEMB      7               0.0000000000
       954         7  DOPC      C315           -8.7113442706        9.3806144348        5.5449336175  MEMB      7               0.0000000000
       955         7  DOPC      H15X           -8.9136110219        8.3271676103        5.2559745650  MEMB      7               0.0000000000
       956         7  DOPC      H15Y           -7.6320645850        9.5416862277        5.3600089024  MEMB      7               0.0000000000
       957         7  DOPC      C316           -9.5306098254       10.3039447548        4.6305682943  MEMB      7               0.0000000000
       958         7  DOPC      H16X           -9.4992899526       11.3221096754        5.0745688915  MEMB      7               0.0000000000
       959         7  DOPC      H16Y           -9.0527681793       10.3486996167        3.6250243747  MEMB      7               0.0000000000
       960         7  DOPC      C317          -11.0041033506        9.9104356679        4.4494485237  MEMB      7               0.0000000000
       961         7  DOPC      H17X          -11.4919554815        9.8235393766        5.4454494184  MEMB      7               0.0000000000
       962         7  DOPC      H17Y          -11.5229735787       10.7349922743        3.9065800492  MEMB      7               0.0000000000
       963         7  DOPC      C318          -11.2244681605        8.6182058129        3.6659319296  MEMB      7               0.0000000000
       964         7  DOPC      H18X          -10.8645677620        8.7135480227        2.6195866865  MEMB      7               0.0000000000
       965         7  DOPC      H18Y          -10.7124495072        7.7532381098        4.1306708084  MEMB      7               0.0000000000
       966         7  DOPC      H18Z          -12.3060665011        8.3854661676        3.6550048147  MEMB      7               0.0000000000
       967         8  DOPC      N             -11.4273088183       -2.1583123045       17.6474228487  MEMB      8               0.0000000000
       968         8  DOPC      C12           -11.2744602656       -3.1823914710       18.7622370498  MEMB      8               0.0000000000
       969         8  DOPC      H12A          -10.3285411490       -3.6970939984       18.6465435700  MEMB      8               0.0000000000
       970         8  DOPC      H12B          -12.0626181911       -3.9348091600       18.6796399509  MEMB      8               0.0000000000
       971         8  DOPC      C13           -10.4194944434       -1.0616210159       17.8063930223  MEMB      8               0.0000000000
       972         8  DOPC      H13A          -10.6892467853       -0.4594352928       18.6691324770  MEMB      8               0.0000000000
       973         8  DOPC      H13B           -9.4179247325       -1.4444532378       17.9844635574  MEMB      8               0.0000000000
       974         8  DOPC      H13C          -10.3967257484       -0.4088279659       16.9413996258  MEMB      8               0.0000000000
       975         8  DOPC      C14           -12.7947134745       -1.5565864167       17.6784650121  MEMB      8               0.0000000000
       976         8  DOPC      H14A          -13.5649297559       -2.3414173309       17.7064131139  MEMB      8               0.0000000000
       977         8  DOPC      H14B          -12.9698637152       -1.0469746607       18.6260720420  MEMB      8               0.0000000000
       978         8  DOPC      H14C          -13.0130406087       -0.9051842384       16.8529519064  MEMB      8               0.0000000000
       979         8  DOPC      C15           -11.2597695394       -2.8140632740       16.3140897317  MEMB      8               0.0000000000
       980         8  DOPC      H15A          -11.5335211218       -2.1394478177       15.5080418350  MEMB      8               0.0000000000
       981         8  DOPC      H15B          -11.9138406573       -3.6781291097       16.2181813740  MEMB      8               0.0000000000
       982         8  DOPC      H15C          -10.2398421080       -3.1284968764       16.1467911573  MEMB      8               0.0000000000
       983         8  DOPC      C11           -11.3587381643       -2.6602916919       20.2138770327  MEMB      8               0.0000000000
       984         8  DOPC      H11A          -11.0323482061       -3.4531119026       20.9256890360  MEMB      8               0.0000000000
       985         8  DOPC      H11B          -10.6592796210       -1.8092880805       20.3391706541  MEMB      8               0.0000000000
       986         8  DOPC      P             -13.9242436569       -3.1783930367       20.5042497144  MEMB      8               0.0000000000
       987         8  DOPC      O13           -14.6847622743       -2.9083195148       19.2672880745  MEMB      8               0.0000000000
       988         8  DOPC      O14           -14.6059356735       -3.1150873677       21.8028578102  MEMB      8               0.0000000000
       989         8  DOPC      O12           -12.6593712272       -2.2075452871       20.5317597760  MEMB      8               0.0000000000
       990         8  DOPC      O11           -13.2635112448       -4.6247637745       20.3529365403  MEMB      8               0.0000000000
       991         8  DOPC      C1            -13.4662429527       -5.6087090142       21.3899004703  MEMB      8               0.0000000000
       992         8  DOPC      HA            -14.3624492997       -5.4218544421       22.0314651242  MEMB      8               0.0000000000
       993         8  DOPC      HB            -12.5854533075       -5.6230696575       22.0573910226  MEMB      8               0.0000000000
       994         8  DOPC      C2            -13.6499304590       -7.0617886437       20.8510622403  MEMB      8               0.0000000000
       995         8  DOPC      HS            -13.5342796354       -7.7581248793       21.7142129634  MEMB      8               0.0000000000
       996         8  DOPC      O21           -12.6940527914       -7.3814280362       19.8270907191  MEMB      8               0.0000000000
       997         8  DOPC      C21           -11.4216613537       -7.1724974739       20.1044625238  MEMB      8               0.0000000000
       998         8  DOPC      O22           -10.9125483469       -7.1463713418       21.2173672908  MEMB      8               0.0000000000
       999         8  DOPC      C22           -10.6472474469       -6.9360394428       18.7951186533  MEMB      8               0.0000000000
      1000         8  DOPC      H2R            -9.7648884504       -7.6012994155       18.7997933212  MEMB      8               0.0000000000
      1001         8  DOPC      H2S           -10.3221040180       -5.8777196455       18.8046495909  MEMB      8               0.0000000000
      1002         8  DOPC      C3            -15.1024815692       -7.2669128197       20.3025138742  MEMB      8               0.0000000000
      1003         8  DOPC      HX            -15.7731566666       -7.2111943080       21.1875824470  MEMB      8               0.0000000000
      1004         8  DOPC      HY            -15.2162904943       -8.2888553176       19.8724908507  MEMB      8               0.0000000000
      1005         8  DOPC      O31           -15.5305535189       -6.2339428360       19.3891440202  MEMB      8               0.0000000000
      1006         8  DOPC      C31           -15.0805896735       -6.3454747545       18.1451670434  MEMB      8               0.0000000000
      1007         8  DOPC      O32           -14.4620490153       -7.2890246990       17.6923429587  MEMB      8               0.0000000000
      1008         8  DOPC      C32           -15.6509235705       -5.2344840500       17.2736700253  MEMB      8               0.0000000000
      1009         8  DOPC      H2X           -16.5091901668       -5.6456232135       16.7028102117  MEMB      8               0.0000000000
      1010         8  DOPC      H2Y           -16.0176586053       -4.4215699409       17.9333695146  MEMB      8               0.0000000000
      1011         8  DOPC      C23           -11.4562677248       -7.2058958493       17.5050846582  MEMB      8               0.0000000000
      1012         8  DOPC      H3R           -12.3204488365       -6.5063435332       17.4793233285  MEMB      8               0.0000000000
      1013         8  DOPC      H3S           -11.8512771596       -8.2494703988       17.5074688360  MEMB      8               0.0000000000
      1014         8  DOPC      C24           -10.6536718888       -6.9431796505       16.2264602487  MEMB      8               0.0000000000
      1015         8  DOPC      H4R            -9.7248278411       -7.5502869948       16.2408964622  MEMB      8               0.0000000000
      1016         8  DOPC      H4S           -10.3625674691       -5.8704546706       16.2189705108  MEMB      8               0.0000000000
      1017         8  DOPC      C25           -11.4409332786       -7.2544458445       14.9451000796  MEMB      8               0.0000000000
      1018         8  DOPC      H5R           -12.5183615575       -7.0042569895       15.0771321385  MEMB      8               0.0000000000
      1019         8  DOPC      H5S           -11.3862146538       -8.3509475526       14.7617539677  MEMB      8               0.0000000000
      1020         8  DOPC      C26           -10.8915600647       -6.5017373865       13.7232077517  MEMB      8               0.0000000000
      1021         8  DOPC      H6R           -11.0458450228       -7.0989324451       12.7993871694  MEMB      8               0.0000000000
      1022         8  DOPC      H6S            -9.7918824920       -6.3839527877       13.8426172862  MEMB      8               0.0000000000
      1023         8  DOPC      C27           -11.5422019638       -5.1187387003       13.5234798848  MEMB      8               0.0000000000
      1024         8  DOPC      H7R           -11.1957625278       -4.4808528273       14.3564891230  MEMB      8               0.0000000000
      1025         8  DOPC      H7S           -12.6492437291       -5.1961676068       13.5689920358  MEMB      8               0.0000000000
      1026         8  DOPC      C28           -11.1376249668       -4.4762742297       12.1864772925  MEMB      8               0.0000000000
      1027         8  DOPC      H8R           -11.6108316455       -5.0575946145       11.3729578305  MEMB      8               0.0000000000
      1028         8  DOPC      H8S           -10.0587584978       -4.6783689754       12.0631706386  MEMB      8               0.0000000000
      1029         8  DOPC      C29           -11.3635180370       -2.9789755214       12.0870536669  MEMB      8               0.0000000000
      1030         8  DOPC      H9R           -11.0069735071       -2.4048355362       12.9551296543  MEMB      8               0.0000000000
      1031         8  DOPC      C210          -11.9402616279       -2.3167486631       11.0614173991  MEMB      8               0.0000000000
      1032         8  DOPC      H10R          -12.0505860589       -1.2200688424       11.1079589774  MEMB      8               0.0000000000
      1033         8  DOPC      C211          -12.4726759267       -2.9752530637        9.8156794939  MEMB      8               0.0000000000
      1034         8  DOPC      H11R          -13.5850433787       -2.9737872939        9.8376843429  MEMB      8               0.0000000000
      1035         8  DOPC      H11S          -12.1745191997       -4.0429251871        9.8084768485  MEMB      8               0.0000000000
      1036         8  DOPC      C212          -12.0304047311       -2.4833491380        8.4237188449  MEMB      8               0.0000000000
      1037         8  DOPC      H12R          -10.9649467590       -2.1634980982        8.4186142054  MEMB      8               0.0000000000
      1038         8  DOPC      H12S          -12.6594103553       -1.6253690991        8.1111956978  MEMB      8               0.0000000000
      1039         8  DOPC      C213          -12.2281447103       -3.6707188834        7.4730140492  MEMB      8               0.0000000000
      1040         8  DOPC      H13R          -13.2550083423       -4.0662296518        7.6541875331  MEMB      8               0.0000000000
      1041         8  DOPC      H13S          -11.5092079580       -4.4685063510        7.7599704327  MEMB      8               0.0000000000
      1042         8  DOPC      C214          -12.0865953577       -3.4189311846        5.9745194428  MEMB      8               0.0000000000
      1043         8  DOPC      H14R          -12.0767990026       -4.4386435255        5.5239729899  MEMB      8               0.0000000000
      1044         8  DOPC      H14S          -11.1105713530       -2.9481170553        5.7280065627  MEMB      8               0.0000000000
      1045         8  DOPC      C215          -13.2656315007       -2.6012849953        5.4265562276  MEMB      8               0.0000000000
      1046         8  DOPC      H15R          -13.1377589566       -1.5541194858        5.7677295008  MEMB      8               0.0000000000
      1047         8  DOPC      H15S          -14.2202852390       -2.9796831385        5.8622361225  MEMB      8               0.0000000000
      1048         8  DOPC      C216          -13.3944168240       -2.6182295834        3.8998079405  MEMB      8               0.0000000000
      1049         8  DOPC      H16R          -12.4632862347       -2.2110422197        3.4509382234  MEMB      8               0.0000000000
      1050         8  DOPC      H16S          -14.2354268071       -1.9548835670        3.5943767262  MEMB      8               0.0000000000
      1051         8  DOPC      C217          -13.6909274569       -4.0096625610        3.3368858578  MEMB      8               0.0000000000
      1052         8  DOPC      H17R          -14.7367702274       -4.2868538778        3.5990638714  MEMB      8               0.0000000000
      1053         8  DOPC      H17S          -13.0250030060       -4.7632756506        3.8107523753  MEMB      8               0.0000000000
      1054         8  DOPC      C218          -13.4772982915       -4.1200078456        1.8325622147  MEMB      8               0.0000000000
      1055         8  DOPC      H18R          -14.2677520605       -4.7113289404        1.3305012373  MEMB      8               0.0000000000
      1056         8  DOPC      H18S          -12.5148556583       -4.6364166692        1.6652174041  MEMB      8               0.0000000000
      1057         8  DOPC      H18T          -13.4328811994       -3.1119147296        1.3651517943  MEMB      8               0.0000000000
      1058         8  DOPC      C33           -14.5677730491       -4.7100644854       16.3063239902  MEMB      8               0.0000000000
      1059         8  DOPC      H3X           -14.2917501809       -5.5212510865       15.5931892899  MEMB      8               0.0000000000
      1060         8  DOPC      H3Y           -13.6634207028       -4.4532618964       16.9031385073  MEMB      8               0.0000000000
      1061         8  DOPC      C34           -14.9813333357       -3.4566077768       15.5209798571  MEMB      8               0.0000000000
      1062         8  DOPC      H4X           -14.1863109037       -3.2238159560       14.7756500939  MEMB      8               0.0000000000
      1063         8  DOPC      H4Y           -15.0579392122       -2.5948555343       16.2213058754  MEMB      8               0.0000000000
      1064         8  DOPC      C35           -16.3163163784       -3.5997012433       14.7843134368  MEMB      8               0.0000000000
      1065         8  DOPC      H5X           -16.5271479252       -2.6571193821       14.2443549105  MEMB      8               0.0000000000
      1066         8  DOPC      H5Y           -17.1431301901       -3.7465084675       15.5134870459  MEMB      8               0.0000000000
      1067         8  DOPC      C36           -16.2812203080       -4.7299174532       13.7680416410  MEMB      8               0.0000000000
      1068         8  DOPC      H6X           -15.6159936341       -4.4280809545       12.9231752140  MEMB      8               0.0000000000
      1069         8  DOPC      H6Y           -15.8485465735       -5.6486005147       14.2205501562  MEMB      8               0.0000000000
      1070         8  DOPC      C37           -17.6492073967       -5.1114926868       13.2113804586  MEMB      8               0.0000000000
      1071         8  DOPC      H7X           -18.2648726068       -5.5727016195       14.0140715378  MEMB      8               0.0000000000
      1072         8  DOPC      H7Y           -18.1802034628       -4.2118369400       12.8278558125  MEMB      8               0.0000000000
      1073         8  DOPC      C38           -17.3943468008       -6.0964831878       12.0742234441  MEMB      8               0.0000000000
      1074         8  DOPC      H8X           -16.8077547960       -6.9338438370       12.4984226781  MEMB      8               0.0000000000
      1075         8  DOPC      H8Y           -16.7724568201       -5.5583390722       11.3261153550  MEMB      8               0.0000000000
      1076         8  DOPC      C39           -18.5952296177       -6.6834626687       11.4312434509  MEMB      8               0.0000000000
      1077         8  DOPC      H9X           -19.3589103818       -7.0005736846       12.1545315160  MEMB      8               0.0000000000
      1078         8  DOPC      C310          -18.7477100702       -6.9096061038       10.1127468132  MEMB      8               0.0000000000
      1079         8  DOPC      H10X          -19.5917577854       -7.5295198825        9.7923960861  MEMB      8               0.0000000000
      1080         8  DOPC      C311          -17.7634023519       -6.6350470036        9.0061789820  MEMB      8               0.0000000000
      1081         8  DOPC      H11X          -18.0300965222       -7.3058041501        8.1666926433  MEMB      8               0.0000000000
      1082         8  DOPC      H11Y          -16.7645159110       -6.9752740348        9.3659005205  MEMB      8               0.0000000000
      1083         8  DOPC      C312          -17.5389190173       -5.2073077631        8.4245644299  MEMB      8               0.0000000000
      1084         8  DOPC      H12X          -16.6556017808       -5.2581316646        7.7507666380  MEMB      8               0.0000000000
      1085         8  DOPC      H12Y          -17.2725607887       -4.5266618255        9.2660285307  MEMB      8               0.0000000000
      1086         8  DOPC      C313          -18.6519439535       -4.5368446465        7.5898591452  MEMB      8               0.0000000000
      1087         8  DOPC      H13X          -19.4971928156       -4.3305257818        8.2871413809  MEMB      8               0.0000000000
      1088         8  DOPC      H13Y          -18.2753970279       -3.5471935603        7.2445031703  MEMB      8               0.0000000000
      1089         8  DOPC      C314          -19.2007869080       -5.2885371722        6.3495552811  MEMB      8               0.0000000000
      1090         8  DOPC      H14X          -19.3723479137       -6.3577127116        6.5856959943  MEMB      8               0.0000000000
      1091         8  DOPC      H14Y          -20.2114025104       -4.8296208185        6.1997750157  MEMB      8               0.0000000000
      1092         8  DOPC      C315          -18.4490458330       -5.0890405154        4.9962635021  MEMB      8               0.0000000000
      1093         8  DOPC      H15X          -17.4453015178       -4.6604417688        5.1898509349  MEMB      8               0.0000000000
      1094         8  DOPC      H15Y          -19.0217192582       -4.3208893450        4.4237246700  MEMB      8               0.0000000000
      1095         8  DOPC      C316          -18.3211670275       -6.3259659173        4.0561151046  MEMB      8               0.0000000000
      1096         8  DOPC      H16X          -17.5914584071       -7.0618939757        4.4201470505  MEMB      8               0.0000000000
      1097         8  DOPC      H16Y          -19.2833192334       -6.8766692288        4.0606165489  MEMB      8               0.0000000000
      1098         8  DOPC      C317          -18.0097227499       -5.9950274896        2.5725486730  MEMB      8               0.0000000000
      1099         8  DOPC      H17X          -18.8362002373       -6.4251272066        1.9665021962  MEMB      8               0.0000000000
      1100         8  DOPC      H17Y          -18.0891277796       -4.9000725740        2.4403555149  MEMB      8               0.0000000000
      1101         8  DOPC      C318          -16.7143169893       -6.5250011721        1.9273234221  MEMB      8               0.0000000000
      1102         8  DOPC      H18X          -16.8075186890       -6.4903111200        0.8167094082  MEMB      8               0.0000000000
      1103         8  DOPC      H18Y          -15.8174466344       -5.9421959202        2.2038004661  MEMB      8               0.0000000000
      1104         8  DOPC      H18Z          -16.5362603381       -7.5770773009        2.2176409254  MEMB      8               0.0000000000
      1105         9  DOPC      N             -14.3509391071        4.6389828732       20.0379201154  MEMB      9               0.0000000000
      1106         9  DOPC      C12           -13.9079750122        5.9102402182       20.7455614631  MEMB      9               0.0000000000
      1107         9  DOPC      H12A          -13.1409183041        5.6543149368       21.4764213470  MEMB      9               0.0000000000
      1108         9  DOPC      H12B          -14.7598260669        6.2822293802       21.3020086832  MEMB      9               0.0000000000
      1109         9  DOPC      C13           -15.4177472090        5.0281517806       19.0794045548  MEMB      9               0.0000000000
      1110         9  DOPC      H13A          -15.9839082532        4.1511111462       18.7891368672  MEMB      9               0.0000000000
      1111         9  DOPC      H13B          -16.1064576199        5.7112450110       19.5776763461  MEMB      9               0.0000000000
      1112         9  DOPC      H13C          -14.9858695337        5.5459971894       18.2281581427  MEMB      9               0.0000000000
      1113         9  DOPC      C14           -14.9125400614        3.6471624049       21.0098910364  MEMB      9               0.0000000000
      1114         9  DOPC      H14A          -15.8960012232        3.9465833505       21.3519114317  MEMB      9               0.0000000000
      1115         9  DOPC      H14B          -15.0839310489        2.6721706329       20.5593099857  MEMB      9               0.0000000000
      1116         9  DOPC      H14C          -14.2883279715        3.5145431937       21.8867547953  MEMB      9               0.0000000000
      1117         9  DOPC      C15           -13.1966793767        4.0221387137       19.3382107795  MEMB      9               0.0000000000
      1118         9  DOPC      H15A          -12.7951111337        4.7647674934       18.6441441238  MEMB      9               0.0000000000
      1119         9  DOPC      H15B          -13.4740669305        3.0964601312       18.8634887269  MEMB      9               0.0000000000
      1120         9  DOPC      H15C          -12.3988647939        3.8439866764       20.0455154615  MEMB      9               0.0000000000
      1121         9  DOPC      C11           -13.3673985821        7.0512421479       19.8426281464  MEMB      9               0.0000000000
      1122         9  DOPC      H11A          -14.1140684998        7.3510649183       19.0728169601  MEMB      9               0.0000000000
      1123         9  DOPC      H11B          -13.1711057226        7.9486759190       20.4736960423  MEMB      9               0.0000000000
      1124         9  DOPC      P             -11.4470236688        7.3397181325       18.0340136427  MEMB      9               0.0000000000
      1125         9  DOPC      O13           -10.1142454803        6.6999188750       18.0498203124  MEMB      9               0.0000000000
      1126         9  DOPC      O14           -11.5183190350        8.8035030850       18.2094162107  MEMB      9               0.0000000000
      1127         9  DOPC      O12           -12.1651425197        6.6214344306       19.2394452748  MEMB      9               0.0000000000
      1128         9  DOPC      O11           -12.2994487812        6.8711552735       16.7797830045  MEMB      9               0.0000000000
      1129         9  DOPC      C1            -12.2626387413        5.5585551119       16.2364681191  MEMB      9               0.0000000000
      1130         9  DOPC      HA            -13.2525647226        5.3041081537       15.7987040819  MEMB      9               0.0000000000
      1131         9  DOPC      HB            -12.0385186409        4.8120763768       17.0260849954  MEMB      9               0.0000000000
      1132         9  DOPC      C2            -11.1893236121        5.3655875490       15.1262804772  MEMB      9               0.0000000000
      1133         9  DOPC      HS            -10.2569244784        5.8884338790       15.4488619504  MEMB      9               0.0000000000
      1134         9  DOPC      O21           -11.6340067392        5.8028657069       13.8262308468  MEMB      9               0.0000000000
      1135         9  DOPC      C21           -11.6409838097        7.0857287023       13.6087304730  MEMB      9               0.0000000000
      1136         9  DOPC      O22           -11.3680367570        7.9715942683       14.3888817753  MEMB      9               0.0000000000
      1137         9  DOPC      C22           -11.8607040067        7.3712009515       12.1321123486  MEMB      9               0.0000000000
      1138         9  DOPC      H2R           -12.7243234211        8.0615521743       12.0461014928  MEMB      9               0.0000000000
      1139         9  DOPC      H2S           -12.1006029777        6.4313988894       11.5984627012  MEMB      9               0.0000000000
      1140         9  DOPC      C3            -10.8697928348        3.8609959647       14.9653242028  MEMB      9               0.0000000000
      1141         9  DOPC      HX            -10.6507793937        3.4234661545       15.9621778477  MEMB      9               0.0000000000
      1142         9  DOPC      HY             -9.9371543487        3.7840046003       14.3513782243  MEMB      9               0.0000000000
      1143         9  DOPC      O31           -12.0317905753        3.2226492669       14.3706113335  MEMB      9               0.0000000000
      1144         9  DOPC      C31           -11.7758489677        2.6551153771       13.1842097446  MEMB      9               0.0000000000
      1145         9  DOPC      O32           -10.7217959688        2.1127555894       12.9019403185  MEMB      9               0.0000000000
      1146         9  DOPC      C32           -12.9674238425        2.8307997845       12.2396750662  MEMB      9               0.0000000000
      1147         9  DOPC      H2X           -13.9113007584        2.6315863149       12.7842998284  MEMB      9               0.0000000000
      1148         9  DOPC      H2Y           -12.9581589523        3.9044780673       11.9539944234  MEMB      9               0.0000000000
      1149         9  DOPC      C23           -10.5718447032        8.0236820639       11.5855029601  MEMB      9               0.0000000000
      1150         9  DOPC      H3R           -10.3546952130        8.9573406716       12.1568077060  MEMB      9               0.0000000000
      1151         9  DOPC      H3S           -10.7254311761        8.3436506016       10.5313991532  MEMB      9               0.0000000000
      1152         9  DOPC      C24            -9.3496381443        7.0855048195       11.6998326031  MEMB      9               0.0000000000
      1153         9  DOPC      H4R            -9.1843659751        6.8002376181       12.7594466183  MEMB      9               0.0000000000
      1154         9  DOPC      H4S            -8.4434227699        7.6512275980       11.3836275487  MEMB      9               0.0000000000
      1155         9  DOPC      C25            -9.4421261524        5.8108828143       10.8450268749  MEMB      9               0.0000000000
      1156         9  DOPC      H5R           -10.2868545281        5.1624585887       11.1638280581  MEMB      9               0.0000000000
      1157         9  DOPC      H5S            -8.5029446933        5.2242892543       10.9633895362  MEMB      9               0.0000000000
      1158         9  DOPC      C26            -9.5994952171        6.2165866670        9.3869994448  MEMB      9               0.0000000000
      1159         9  DOPC      H6R            -8.8166264090        6.9772940740        9.1917415740  MEMB      9               0.0000000000
      1160         9  DOPC      H6S           -10.5947860860        6.6898356498        9.2334191679  MEMB      9               0.0000000000
      1161         9  DOPC      C27            -9.4098724624        5.1417161777        8.3256463271  MEMB      9               0.0000000000
      1162         9  DOPC      H7R           -10.3419163295        4.5493560979        8.2703965559  MEMB      9               0.0000000000
      1163         9  DOPC      H7S            -8.6183768971        4.4209070352        8.5817783061  MEMB      9               0.0000000000
      1164         9  DOPC      C28            -9.1126975852        5.8322397115        6.9871139687  MEMB      9               0.0000000000
      1165         9  DOPC      H8R            -8.7217409523        5.1045020717        6.2445835796  MEMB      9               0.0000000000
      1166         9  DOPC      H8S            -8.3290494570        6.6087806327        7.1079653708  MEMB      9               0.0000000000
      1167         9  DOPC      C29           -10.4367075042        6.4138459348        6.5741731351  MEMB      9               0.0000000000
      1168         9  DOPC      H9R           -10.6781164319        7.4469390995        6.8614900908  MEMB      9               0.0000000000
      1169         9  DOPC      C210          -11.3466252784        5.6816652998        5.9467971738  MEMB      9               0.0000000000
      1170         9  DOPC      H10R          -12.3240626122        6.1188873820        5.6945288048  MEMB      9               0.0000000000
      1171         9  DOPC      C211          -11.1421973543        4.2359842885        5.5861417953  MEMB      9               0.0000000000
      1172         9  DOPC      H11R          -12.0441439060        3.6720871868        5.8295410091  MEMB      9               0.0000000000
      1173         9  DOPC      H11S          -10.3119217808        3.7251049983        6.1249289801  MEMB      9               0.0000000000
      1174         9  DOPC      C212          -10.8678922441        4.2393787133        4.0897860908  MEMB      9               0.0000000000
      1175         9  DOPC      H12R           -9.9002850034        4.7661263956        3.9176393622  MEMB      9               0.0000000000
      1176         9  DOPC      H12S          -11.6615571200        4.8060499979        3.5758839397  MEMB      9               0.0000000000
      1177         9  DOPC      C213          -10.8338043122        2.8797222957        3.4007702961  MEMB      9               0.0000000000
      1178         9  DOPC      H13R          -11.8670514636        2.5276969329        3.1868434932  MEMB      9               0.0000000000
      1179         9  DOPC      H13S          -10.3689841548        2.1402082418        4.0856196461  MEMB      9               0.0000000000
      1180         9  DOPC      C214          -10.0176457059        2.9853905364        2.1053124691  MEMB      9               0.0000000000
      1181         9  DOPC      H14R           -9.9574250474        1.9914074283        1.6226969933  MEMB      9               0.0000000000
      1182         9  DOPC      H14S           -8.9825622896        3.2801352131        2.4036609083  MEMB      9               0.0000000000
      1183         9  DOPC      C215          -10.5385547888        4.0104639066        1.0798234835  MEMB      9               0.0000000000
      1184         9  DOPC      H15R          -10.6141798607        5.0068453162        1.5754930085  MEMB      9               0.0000000000
      1185         9  DOPC      H15S          -11.5507327834        3.7319671572        0.7269773103  MEMB      9               0.0000000000
      1186         9  DOPC      C216           -9.5695953102        4.1835375400       -0.1004897318  MEMB      9               0.0000000000
      1187         9  DOPC      H16R           -8.5683172326        4.0592367560        0.3514089152  MEMB      9               0.0000000000
      1188         9  DOPC      H16S           -9.6436549598        5.2130324395       -0.5129624447  MEMB      9               0.0000000000
      1189         9  DOPC      C217           -9.6647758453        3.1549705665       -1.2390282608  MEMB      9               0.0000000000
      1190         9  DOPC      H17R           -9.4073619577        2.1667945091       -0.8067198610  MEMB      9               0.0000000000
      1191         9  DOPC      H17S           -8.8660747931        3.3852854341       -1.9837448777  MEMB      9               0.0000000000
      1192         9  DOPC      C218          -11.0097494934        3.0707114790       -1.9685103401  MEMB      9               0.0000000000
      1193         9  DOPC      H18R          -11.8146753235        3.5863242105       -1.4030033123  MEMB      9               0.0000000000
      1194         9  DOPC      H18S          -11.3444269542        2.0387166943       -2.1585734856  MEMB      9               0.0000000000
      1195         9  DOPC      H18T          -10.9210946649        3.5117321373       -2.9786561311  MEMB      9               0.0000000000
      1196         9  DOPC      C33           -12.8589989339        1.9362900732       10.9752282319  MEMB      9               0.0000000000
      1197         9  DOPC      H3X           -13.4648369508        1.0140001000       11.1205380517  MEMB      9               0.0000000000
      1198         9  DOPC      H3Y           -11.8091935842        1.6022600120       10.8226835728  MEMB      9               0.0000000000
      1199         9  DOPC      C34           -13.2964828371        2.6146272287        9.6669908888  MEMB      9               0.0000000000
      1200         9  DOPC      H4X           -13.4877300432        3.6977510169        9.8389182445  MEMB      9               0.0000000000
      1201         9  DOPC      H4Y           -14.2540221243        2.1505383627        9.3447832212  MEMB      9               0.0000000000
      1202         9  DOPC      C35           -12.2824781349        2.5058236841        8.5104469640  MEMB      9               0.0000000000
      1203         9  DOPC      H5X           -11.3507256084        3.0216902929        8.8024854724  MEMB      9               0.0000000000
      1204         9  DOPC      H5Y           -12.7212126288        3.0391415317        7.6440240080  MEMB      9               0.0000000000
      1205         9  DOPC      C36           -11.9289492584        1.0746328850        8.0869594451  MEMB      9               0.0000000000
      1206         9  DOPC      H6X           -10.9744151210        0.7835542044        8.5854470350  MEMB      9               0.0000000000
      1207         9  DOPC      H6Y           -12.7280505687        0.4091581263        8.4750912184  MEMB      9               0.0000000000
      1208         9  DOPC      C37           -11.7693459670        0.8385524652        6.5680976122  MEMB      9               0.0000000000
      1209         9  DOPC      H7X           -10.9169699527        1.4412495345        6.1855415266  MEMB      9               0.0000000000
      1210         9  DOPC      H7Y           -11.4825766076       -0.2292139005        6.4281153492  MEMB      9               0.0000000000
      1211         9  DOPC      C38           -12.9999297973        1.1166959226        5.6698905273  MEMB      9               0.0000000000
      1212         9  DOPC      H8X           -12.8813369901        0.4640398396        4.7732967831  MEMB      9               0.0000000000
      1213         9  DOPC      H8Y           -12.9617158156        2.1326978181        5.2556211686  MEMB      9               0.0000000000
      1214         9  DOPC      C39           -14.3684725876        0.9118869749        6.2567947379  MEMB      9               0.0000000000
      1215         9  DOPC      H9X           -14.7069744854       -0.1358632458        6.2241598417  MEMB      9               0.0000000000
      1216         9  DOPC      C310          -15.2608946174        1.8214197617        6.6990167905  MEMB      9               0.0000000000
      1217         9  DOPC      H10X          -16.2108700323        1.3761467334        7.0283866093  MEMB      9               0.0000000000
      1218         9  DOPC      C311          -15.3120540071        3.3448648874        6.8127290232  MEMB      9               0.0000000000
      1219         9  DOPC      H11X          -15.0366136729        3.5909483716        7.8630407513  MEMB      9               0.0000000000
      1220         9  DOPC      H11Y          -16.3801965117        3.6312396084        6.7399913951  MEMB      9               0.0000000000
      1221         9  DOPC      C312          -14.6695287537        4.5035431472        5.9832841335  MEMB      9               0.0000000000
      1222         9  DOPC      H12X          -13.6725608256        4.7001417772        6.3997849899  MEMB      9               0.0000000000
      1223         9  DOPC      H12Y          -15.2725757502        5.4052741563        6.2465148554  MEMB      9               0.0000000000
      1224         9  DOPC      C313          -14.6672457767        4.4375634383        4.4426995750  MEMB      9               0.0000000000
      1225         9  DOPC      H13X          -13.7212280073        3.9702582745        4.0954041791  MEMB      9               0.0000000000
      1226         9  DOPC      H13Y          -15.4925549879        3.7769675073        4.1163115396  MEMB      9               0.0000000000
      1227         9  DOPC      C314          -14.8900606443        5.8044227352        3.7383500777  MEMB      9               0.0000000000
      1228         9  DOPC      H14X          -15.9495895509        5.8475251488        3.4006525968  MEMB      9               0.0000000000
      1229         9  DOPC      H14Y          -14.7325628254        6.6195726771        4.4766641915  MEMB      9               0.0000000000
      1230         9  DOPC      C315          -13.9502631038        6.0687647897        2.5438015921  MEMB      9               0.0000000000
      1231         9  DOPC      H15X          -14.0264795432        5.2401750785        1.8089060062  MEMB      9               0.0000000000
      1232         9  DOPC      H15Y          -12.9184808351        6.0748665622        2.9448488543  MEMB      9               0.0000000000
      1233         9  DOPC      C316          -14.0832536008        7.4358428067        1.8398307542  MEMB      9               0.0000000000
      1234         9  DOPC      H16X          -15.0814953058        7.5682247451        1.3804171068  MEMB      9               0.0000000000
      1235         9  DOPC      H16Y          -13.9905324262        8.2297674690        2.6111665962  MEMB      9               0.0000000000
      1236         9  DOPC      C317          -12.9669810289        7.6242978132        0.7875282096  MEMB      9               0.0000000000
      1237         9  DOPC      H17X          -12.0166782252        7.2242396988        1.2116618046  MEMB      9               0.0000000000
      1238         9  DOPC      H17Y          -13.1894123353        6.9911018798       -0.0963132358  MEMB      9               0.0000000000
      1239         9  DOPC      C318          -12.7068006240        9.0640756386        0.3246008992  MEMB      9               0.0000000000
      1240         9  DOPC      H18X          -11.6825501094        9.1470108119       -0.1037933467  MEMB      9               0.0000000000
      1241         9  DOPC      H18Y          -13.4308593244        9.3598187635       -0.4621268333  MEMB      9               0.0000000000
      1242         9  DOPC      H18Z          -12.7811838233        9.7836908222        1.1668209545  MEMB      9               0.0000000000
      1243        10  DOPC      N              -4.3604841620      -11.8425442030       18.1660702514  MEMB      10              0.0000000000
      1244        10  DOPC      C12            -4.2090784800      -13.2946983497       17.7127614290  MEMB      10              0.0000000000
      1245        10  DOPC      H12A           -3.4295760310      -13.7811605623       18.3135567274  MEMB      10              0.0000000000
      1246        10  DOPC      H12B           -3.8565645074      -13.3322791378       16.6889888299  MEMB      10              0.0000000000
      1247        10  DOPC      C13            -4.7587932339      -11.8135211015       19.6160948664  MEMB      10              0.0000000000
      1248        10  DOPC      H13A           -3.9132601149      -12.0769754612       20.2522498781  MEMB      10              0.0000000000
      1249        10  DOPC      H13B           -5.0805115966      -10.8362257621       19.9391689330  MEMB      10              0.0000000000
      1250        10  DOPC      H13C           -5.5149757407      -12.5726995792       19.8336233815  MEMB      10              0.0000000000
      1251        10  DOPC      C14            -5.4274966321      -11.2165056589       17.3166367792  MEMB      10              0.0000000000
      1252        10  DOPC      H14A           -6.3929271362      -11.5949903487       17.6274222198  MEMB      10              0.0000000000
      1253        10  DOPC      H14B           -5.4157580097      -10.1445675157       17.3976764832  MEMB      10              0.0000000000
      1254        10  DOPC      H14C           -5.3079553499      -11.4696180489       16.2669842494  MEMB      10              0.0000000000
      1255        10  DOPC      C15            -3.0656567720      -11.0869422823       18.0704751942  MEMB      10              0.0000000000
      1256        10  DOPC      H15A           -3.0526597044      -10.1467124182       18.6244523280  MEMB      10              0.0000000000
      1257        10  DOPC      H15B           -2.7791499874      -10.8653638338       17.0500788022  MEMB      10              0.0000000000
      1258        10  DOPC      H15C           -2.2681974100      -11.6913091334       18.5098243255  MEMB      10              0.0000000000
      1259        10  DOPC      C11            -5.4614563845      -14.2066252664       17.8438796090  MEMB      10              0.0000000000
      1260        10  DOPC      H11A           -6.3588163114      -13.7156859697       17.4109174879  MEMB      10              0.0000000000
      1261        10  DOPC      H11B           -5.3332885886      -15.1317003658       17.2408997404  MEMB      10              0.0000000000
      1262        10  DOPC      P              -4.8720414937      -15.6640402049       19.9693762825  MEMB      10              0.0000000000
      1263        10  DOPC      O13            -5.2338993152      -16.9980070683       19.4361359235  MEMB      10              0.0000000000
      1264        10  DOPC      O14            -5.0801058755      -15.4328195577       21.4162384089  MEMB      10              0.0000000000
      1265        10  DOPC      O12            -5.7177896475      -14.5312697040       19.2066172004  MEMB      10              0.0000000000
      1266        10  DOPC      O11            -3.3680459675      -15.2613862294       19.5274672902  MEMB      10              0.0000000000
      1267        10  DOPC      C1             -2.4527000192      -14.5279565866       20.3759806784  MEMB      10              0.0000000000
      1268        10  DOPC      HA             -2.1866073370      -15.1529875580       21.2562826629  MEMB      10              0.0000000000
      1269        10  DOPC      HB             -2.9387307246      -13.6099343394       20.7646029709  MEMB      10              0.0000000000
      1270        10  DOPC      C2             -1.0626904439      -14.0731190750       19.7349692552  MEMB      10              0.0000000000
      1271        10  DOPC      HS             -0.5729805534      -13.3302874838       20.4011496956  MEMB      10              0.0000000000
      1272        10  DOPC      O21            -1.3269130475      -13.4674547437       18.4440310323  MEMB      10              0.0000000000
      1273        10  DOPC      C21            -0.3092121003      -13.1361003854       17.6419229796  MEMB      10              0.0000000000
      1274        10  DOPC      O22             0.8688664080      -13.1371609505       17.9125858123  MEMB      10              0.0000000000
      1275        10  DOPC      C22            -0.8834478786      -12.9059316793       16.2342999955  MEMB      10              0.0000000000
      1276        10  DOPC      H2R            -1.6465984036      -12.1175715079       16.2557848530  MEMB      10              0.0000000000
      1277        10  DOPC      H2S            -1.3635845630      -13.8541294163       15.9222071948  MEMB      10              0.0000000000
      1278        10  DOPC      C3             -0.0911262771      -15.3153020582       19.6516547258  MEMB      10              0.0000000000
      1279        10  DOPC      HX              0.3054710062      -15.4633933047       20.6784676315  MEMB      10              0.0000000000
      1280        10  DOPC      HY              0.8264142331      -15.1520002739       19.0408523518  MEMB      10              0.0000000000
      1281        10  DOPC      O31            -0.7818601767      -16.5285494580       19.2867615621  MEMB      10              0.0000000000
      1282        10  DOPC      C31            -1.0324412523      -16.5720053876       17.9852920150  MEMB      10              0.0000000000
      1283        10  DOPC      O32            -0.5895171011      -15.8072836982       17.1576597738  MEMB      10              0.0000000000
      1284        10  DOPC      C32            -1.9798270654      -17.6552837361       17.6274191425  MEMB      10              0.0000000000
      1285        10  DOPC      H2X            -1.3564275322      -18.3500666909       17.0358805191  MEMB      10              0.0000000000
      1286        10  DOPC      H2Y            -2.3088324633      -18.1123461108       18.5853288316  MEMB      10              0.0000000000
      1287        10  DOPC      C23             0.1783073426      -12.5399175995       15.1876590090  MEMB      10              0.0000000000
      1288        10  DOPC      H3R             1.1466146616      -13.0515941963       15.4029615213  MEMB      10              0.0000000000
      1289        10  DOPC      H3S             0.3313157875      -11.4448749739       15.2532317258  MEMB      10              0.0000000000
      1290        10  DOPC      C24            -0.2453938249      -12.8760937265       13.7592792344  MEMB      10              0.0000000000
      1291        10  DOPC      H4R            -1.2262218124      -12.3972936565       13.5480067184  MEMB      10              0.0000000000
      1292        10  DOPC      H4S            -0.3604728416      -13.9795475553       13.6589799757  MEMB      10              0.0000000000
      1293        10  DOPC      C25             0.7881942031      -12.3823688156       12.7412562397  MEMB      10              0.0000000000
      1294        10  DOPC      H5R             1.8072165518      -12.6333380522       13.1194658126  MEMB      10              0.0000000000
      1295        10  DOPC      H5S             0.7384918665      -11.2744637023       12.6505597425  MEMB      10              0.0000000000
      1296        10  DOPC      C26             0.6312840745      -13.0209289139       11.3569573242  MEMB      10              0.0000000000
      1297        10  DOPC      H6R             0.6746339758      -14.1283004694       11.4368004909  MEMB      10              0.0000000000
      1298        10  DOPC      H6S             1.5216296404      -12.7043007032       10.7638275139  MEMB      10              0.0000000000
      1299        10  DOPC      C27            -0.6244556482      -12.5798047671       10.5745518199  MEMB      10              0.0000000000
      1300        10  DOPC      H7R            -0.3802487567      -12.6247088758        9.4890405541  MEMB      10              0.0000000000
      1301        10  DOPC      H7S            -0.8473395025      -11.5170720668       10.8130331379  MEMB      10              0.0000000000
      1302        10  DOPC      C28            -1.8845157687      -13.4511769653       10.7599071140  MEMB      10              0.0000000000
      1303        10  DOPC      H8R            -2.7150190752      -12.9730094167       10.1944656506  MEMB      10              0.0000000000
      1304        10  DOPC      H8S            -2.1950325951      -13.4495358875       11.8252041806  MEMB      10              0.0000000000
      1305        10  DOPC      C29            -1.6608007278      -14.8644705269       10.2846663819  MEMB      10              0.0000000000
      1306        10  DOPC      H9R            -1.2801928816      -15.5495442271       11.0611831884  MEMB      10              0.0000000000
      1307        10  DOPC      C210           -1.8748534159      -15.3488411429        9.0459402439  MEMB      10              0.0000000000
      1308        10  DOPC      H10R           -1.6490456318      -16.4106054596        8.8621314487  MEMB      10              0.0000000000
      1309        10  DOPC      C211           -2.3898654680      -14.6163490850        7.8246058900  MEMB      10              0.0000000000
      1310        10  DOPC      H11R           -2.8881994753      -13.6557143546        8.0776072219  MEMB      10              0.0000000000
      1311        10  DOPC      H11S           -3.1593005897      -15.2540751710        7.3357822737  MEMB      10              0.0000000000
      1312        10  DOPC      C212           -1.2961015724      -14.3541955237        6.7732780818  MEMB      10              0.0000000000
      1313        10  DOPC      H12R           -0.5123898358      -15.1293410117        6.9037612281  MEMB      10              0.0000000000
      1314        10  DOPC      H12S           -0.8247220087      -13.3619754547        6.9441731428  MEMB      10              0.0000000000
      1315        10  DOPC      C213           -1.7710568778      -14.4877515350        5.3168979489  MEMB      10              0.0000000000
      1316        10  DOPC      H13R           -2.5361576859      -15.2913626546        5.2536540649  MEMB      10              0.0000000000
      1317        10  DOPC      H13S           -0.9159269101      -14.8187392385        4.6832850737  MEMB      10              0.0000000000
      1318        10  DOPC      C214           -2.3046742816      -13.1767187114        4.7272520393  MEMB      10              0.0000000000
      1319        10  DOPC      H14R           -1.4504271573      -12.4689555428        4.6201633873  MEMB      10              0.0000000000
      1320        10  DOPC      H14S           -3.0410058877      -12.7195724611        5.4235496512  MEMB      10              0.0000000000
      1321        10  DOPC      C215           -2.9675795190      -13.3820836909        3.3582331779  MEMB      10              0.0000000000
      1322        10  DOPC      H15R           -2.3371944873      -14.0628442223        2.7443938464  MEMB      10              0.0000000000
      1323        10  DOPC      H15S           -3.0119629900      -12.4097176626        2.8259982654  MEMB      10              0.0000000000
      1324        10  DOPC      C216           -4.3871914397      -13.9560608657        3.4815799656  MEMB      10              0.0000000000
      1325        10  DOPC      H16R           -5.0601301273      -13.2221428548        3.9753554171  MEMB      10              0.0000000000
      1326        10  DOPC      H16S           -4.3378667370      -14.8461849329        4.1454335747  MEMB      10              0.0000000000
      1327        10  DOPC      C217           -4.9995935700      -14.3999507161        2.1466772809  MEMB      10              0.0000000000
      1328        10  DOPC      H17R           -5.7904573010      -15.1545753770        2.3616560045  MEMB      10              0.0000000000
      1329        10  DOPC      H17S           -4.2297180149      -14.8738342099        1.4971091696  MEMB      10              0.0000000000
      1330        10  DOPC      C218           -5.6132919200      -13.2848983813        1.3445269818  MEMB      10              0.0000000000
      1331        10  DOPC      H18R           -6.2625948931      -12.6602278220        1.9965484097  MEMB      10              0.0000000000
      1332        10  DOPC      H18S           -6.2214775633      -13.6819841210        0.5031228353  MEMB      10              0.0000000000
      1333        10  DOPC      H18T           -4.8050462839      -12.6631860652        0.9102686219  MEMB      10              0.0000000000
      1334        10  DOPC      C33            -3.2101672702      -17.0928702997       16.8700158579  MEMB      10              0.0000000000
      1335        10  DOPC      H3X            -3.5956382743      -16.2355838482       17.4496773586  MEMB      10              0.0000000000
      1336        10  DOPC      H3Y            -4.0068396375      -17.8656768632       16.8995171358  MEMB      10              0.0000000000
      1337        10  DOPC      C34            -3.0238606404      -16.5917398615       15.4251508446  MEMB      10              0.0000000000
      1338        10  DOPC      H4X            -2.7216768255      -17.4338839984       14.7727212670  MEMB      10              0.0000000000
      1339        10  DOPC      H4Y            -2.2083542772      -15.8432018413       15.3645709026  MEMB      10              0.0000000000
      1340        10  DOPC      C35            -4.3241196847      -15.9507124351       14.9017741042  MEMB      10              0.0000000000
      1341        10  DOPC      H5X            -4.3457031224      -14.8708937131       15.1600982662  MEMB      10              0.0000000000
      1342        10  DOPC      H5Y            -5.1713569680      -16.4320899745       15.4439545282  MEMB      10              0.0000000000
      1343        10  DOPC      C36            -4.5769365872      -16.1248817794       13.3973106473  MEMB      10              0.0000000000
      1344        10  DOPC      H6X            -3.9055084853      -15.4536812568       12.8185669876  MEMB      10              0.0000000000
      1345        10  DOPC      H6Y            -4.3290556268      -17.1721203194       13.1117375082  MEMB      10              0.0000000000
      1346        10  DOPC      C37            -6.0492210798      -15.8613289444       13.0265547217  MEMB      10              0.0000000000
      1347        10  DOPC      H7X            -6.6923741613      -16.4096618222       13.7550625397  MEMB      10              0.0000000000
      1348        10  DOPC      H7Y            -6.2786183766      -14.7799669202       13.1367486885  MEMB      10              0.0000000000
      1349        10  DOPC      C38            -6.4606641107      -16.3405572695       11.6161139054  MEMB      10              0.0000000000
      1350        10  DOPC      H8X            -7.5569994345      -16.1736603492       11.5163466788  MEMB      10              0.0000000000
      1351        10  DOPC      H8Y            -6.3117111226      -17.4409900012       11.5640039939  MEMB      10              0.0000000000
      1352        10  DOPC      C39            -5.7758694111      -15.6281947494       10.4769744885  MEMB      10              0.0000000000
      1353        10  DOPC      H9X            -5.8225679870      -14.5293751931       10.5194229886  MEMB      10              0.0000000000
      1354        10  DOPC      C310           -5.1129226563      -16.1977043258        9.4540536000  MEMB      10              0.0000000000
      1355        10  DOPC      H10X           -4.7034954972      -15.5392086494        8.6766740919  MEMB      10              0.0000000000
      1356        10  DOPC      C311           -4.8922384233      -17.6693270093        9.2025378387  MEMB      10              0.0000000000
      1357        10  DOPC      H11X           -4.8386869708      -18.2239198041       10.1652438179  MEMB      10              0.0000000000
      1358        10  DOPC      H11Y           -3.9088481158      -17.8268518053        8.7079137200  MEMB      10              0.0000000000
      1359        10  DOPC      C312           -5.9935062330      -18.3079881265        8.3327317682  MEMB      10              0.0000000000
      1360        10  DOPC      H12X           -6.9792617762      -18.1701317517        8.8292972541  MEMB      10              0.0000000000
      1361        10  DOPC      H12Y           -5.8098288389      -19.4028602066        8.2641944643  MEMB      10              0.0000000000
      1362        10  DOPC      C313           -6.0603329056      -17.7881087954        6.8902830446  MEMB      10              0.0000000000
      1363        10  DOPC      H13X           -6.9366073945      -18.2628193308        6.3915035896  MEMB      10              0.0000000000
      1364        10  DOPC      H13Y           -6.2191358261      -16.6877413409        6.8805072947  MEMB      10              0.0000000000
      1365        10  DOPC      C314           -4.7994715381      -18.1185504968        6.0865428053  MEMB      10              0.0000000000
      1366        10  DOPC      H14X           -3.9286150545      -17.5777203983        6.5147226943  MEMB      10              0.0000000000
      1367        10  DOPC      H14Y           -4.5772681643      -19.2059683095        6.1763160086  MEMB      10              0.0000000000
      1368        10  DOPC      C315           -4.9274654234      -17.7296729356        4.6105772469  MEMB      10              0.0000000000
      1369        10  DOPC      H15X           -5.2341698825      -16.6688510536        4.5357012289  MEMB      10              0.0000000000
      1370        10  DOPC      H15Y           -5.7369864216      -18.2997418194        4.1098761569  MEMB      10              0.0000000000
      1371        10  DOPC      C316           -3.6144841929      -17.9707454704        3.8631770571  MEMB      10              0.0000000000
      1372        10  DOPC      H16X           -2.7745488717      -17.5313476407        4.4444607232  MEMB      10              0.0000000000
      1373        10  DOPC      H16Y           -3.4388152903      -19.0630994675        3.8211434694  MEMB      10              0.0000000000
      1374        10  DOPC      C317           -3.5990860072      -17.3678959150        2.4551237544  MEMB      10              0.0000000000
      1375        10  DOPC      H17X           -3.4579924107      -16.2866941878        2.6127171481  MEMB      10              0.0000000000
      1376        10  DOPC      H17Y           -2.7042856949      -17.6765905876        1.8833426264  MEMB      10              0.0000000000
      1377        10  DOPC      C318           -4.8379403140      -17.6710911839        1.6048530496  MEMB      10              0.0000000000
      1378        10  DOPC      H18X           -4.7925030360      -17.1393975030        0.6296005145  MEMB      10              0.0000000000
      1379        10  DOPC      H18Y           -4.8899793159      -18.7612417067        1.4045862549  MEMB      10              0.0000000000
      1380        10  DOPC      H18Z           -5.7706694979      -17.3611760586        2.1245498782  MEMB      10              0.0000000000
      1381        11  DOPC      N              11.9240440993       10.5669637360       20.6029761481  MEMB      11              0.0000000000
      1382        11  DOPC      C12            11.9119276734       10.1364159820       19.1194828581  MEMB      11              0.0000000000
      1383        11  DOPC      H12A           12.8630839783        9.6787846084       18.8658601717  MEMB      11              0.0000000000
      1384        11  DOPC      H12B           11.8041768493       11.0063799490       18.4839768956  MEMB      11              0.0000000000
      1385        11  DOPC      C13            11.6764925298        9.3379126093       21.4290575672  MEMB      11              0.0000000000
      1386        11  DOPC      H13A           12.4314028267        8.5814527390       21.2194475514  MEMB      11              0.0000000000
      1387        11  DOPC      H13B           11.7295008941        9.5436933015       22.4847039780  MEMB      11              0.0000000000
      1388        11  DOPC      H13C           10.6990628285        8.9388658341       21.1644309954  MEMB      11              0.0000000000
      1389        11  DOPC      C14            10.8643448469       11.5941039811       20.8714142159  MEMB      11              0.0000000000
      1390        11  DOPC      H14A           10.7873985281       11.8241719058       21.9186386072  MEMB      11              0.0000000000
      1391        11  DOPC      H14B           11.0438730209       12.5140257011       20.3263010514  MEMB      11              0.0000000000
      1392        11  DOPC      H14C            9.8952643846       11.2338760366       20.5242024051  MEMB      11              0.0000000000
      1393        11  DOPC      C15            13.2137889393       11.1753879565       21.0399285808  MEMB      11              0.0000000000
      1394        11  DOPC      H15A           13.1785877295       11.4246930338       22.0991284641  MEMB      11              0.0000000000
      1395        11  DOPC      H15B           13.4077814234       12.0771945809       20.4844572124  MEMB      11              0.0000000000
      1396        11  DOPC      H15C           14.0323121843       10.4768419243       20.9085116695  MEMB      11              0.0000000000
      1397        11  DOPC      C11            10.8271731489        9.1284633121       18.5881255939  MEMB      11              0.0000000000
      1398        11  DOPC      H11A           10.9749690361        9.0055133593       17.4858500416  MEMB      11              0.0000000000
      1399        11  DOPC      H11B           11.0362776989        8.1193702006       19.0177415914  MEMB      11              0.0000000000
      1400        11  DOPC      P               8.7267296188       10.7207390185       18.2461301646  MEMB      11              0.0000000000
      1401        11  DOPC      O13             8.2993213149       11.4955343038       19.4342002382  MEMB      11              0.0000000000
      1402        11  DOPC      O14             7.6542053339       10.2448634622       17.3427163020  MEMB      11              0.0000000000
      1403        11  DOPC      O12             9.4769850936        9.4971680349       18.8788017917  MEMB      11              0.0000000000
      1404        11  DOPC      O11             9.9097579604       11.4673708724       17.5184217181  MEMB      11              0.0000000000
      1405        11  DOPC      C1             10.1207811127       12.8831670591       17.5618831898  MEMB      11              0.0000000000
      1406        11  DOPC      HA             11.1966561518       13.1024952643       17.7572050990  MEMB      11              0.0000000000
      1407        11  DOPC      HB              9.5205292817       13.3986183165       18.3492713011  MEMB      11              0.0000000000
      1408        11  DOPC      C2              9.7754445674       13.4882973940       16.1859525140  MEMB      11              0.0000000000
      1409        11  DOPC      HS              8.6657633974       13.3820583518       16.0885945487  MEMB      11              0.0000000000
      1410        11  DOPC      O21            10.4938414521       12.7412475299       15.1913077342  MEMB      11              0.0000000000
      1411        11  DOPC      C21             9.8081750638       12.3676866535       14.1350099170  MEMB      11              0.0000000000
      1412        11  DOPC      O22             8.6787819638       12.7128401404       13.8390925454  MEMB      11              0.0000000000
      1413        11  DOPC      C22            10.6991500863       11.3987550309       13.3556867881  MEMB      11              0.0000000000
      1414        11  DOPC      H2R            10.8607189743       10.5288111623       14.0282106422  MEMB      11              0.0000000000
      1415        11  DOPC      H2S            11.6785438251       11.8913308774       13.1759575095  MEMB      11              0.0000000000
      1416        11  DOPC      C3             10.1125751189       14.9885357504       16.0560995015  MEMB      11              0.0000000000
      1417        11  DOPC      HX             11.1624424027       15.0866030899       15.6765393706  MEMB      11              0.0000000000
      1418        11  DOPC      HY             10.0581109516       15.4903286792       17.0432948961  MEMB      11              0.0000000000
      1419        11  DOPC      O31             9.1057379171       15.5592078226       15.2083118758  MEMB      11              0.0000000000
      1420        11  DOPC      C31             9.5243185541       16.1539057675       14.1152256221  MEMB      11              0.0000000000
      1421        11  DOPC      O32            10.6668335891       16.5050398637       13.8881204120  MEMB      11              0.0000000000
      1422        11  DOPC      C32             8.3150947377       16.1830174994       13.1619469569  MEMB      11              0.0000000000
      1423        11  DOPC      H2X             7.6413116939       15.3411998256       13.4210546985  MEMB      11              0.0000000000
      1424        11  DOPC      H2Y             7.7849032145       17.1324968241       13.4005846396  MEMB      11              0.0000000000
      1425        11  DOPC      C23            10.1019779649       10.8874295828       12.0255290579  MEMB      11              0.0000000000
      1426        11  DOPC      H3R            10.1061610191       11.7014016919       11.2677296721  MEMB      11              0.0000000000
      1427        11  DOPC      H3S             9.0432026471       10.5778519307       12.1916630870  MEMB      11              0.0000000000
      1428        11  DOPC      C24            10.8991207982        9.6719229252       11.5311978109  MEMB      11              0.0000000000
      1429        11  DOPC      H4R            10.8765419040        8.9011738696       12.3360550263  MEMB      11              0.0000000000
      1430        11  DOPC      H4S            11.9628188662        9.9638889230       11.3791935983  MEMB      11              0.0000000000
      1431        11  DOPC      C25            10.3567681970        9.0337947598       10.2472993407  MEMB      11              0.0000000000
      1432        11  DOPC      H5R             9.2629517563        8.8529383403       10.3504675925  MEMB      11              0.0000000000
      1433        11  DOPC      H5S            10.8485477018        8.0432338089       10.1087991019  MEMB      11              0.0000000000
      1434        11  DOPC      C26            10.6254377107        9.8762069908        8.9981522989  MEMB      11              0.0000000000
      1435        11  DOPC      H6R            11.7213222641       10.0270097053        8.8746106777  MEMB      11              0.0000000000
      1436        11  DOPC      H6S            10.1569590157       10.8788094265        9.1211887150  MEMB      11              0.0000000000
      1437        11  DOPC      C27            10.0591073446        9.2367775295        7.7284050946  MEMB      11              0.0000000000
      1438        11  DOPC      H7R             8.9880587158        8.9809039561        7.9064372654  MEMB      11              0.0000000000
      1439        11  DOPC      H7S            10.6023193147        8.2917325898        7.5033527976  MEMB      11              0.0000000000
      1440        11  DOPC      C28            10.1503317891       10.2044059625        6.5448379214  MEMB      11              0.0000000000
      1441        11  DOPC      H8R            11.2216273109       10.4289171226        6.3383213605  MEMB      11              0.0000000000
      1442        11  DOPC      H8S             9.6704507202       11.1624084229        6.8435260487  MEMB      11              0.0000000000
      1443        11  DOPC      C29             9.5015739918        9.6337379240        5.3181833744  MEMB      11              0.0000000000
      1444        11  DOPC      H9R            10.1971599434        9.1291180943        4.6548140948  MEMB      11              0.0000000000
      1445        11  DOPC      C210            8.2020552870        9.6424329978        4.9884069510  MEMB      11              0.0000000000
      1446        11  DOPC      H10R            7.8984452854        9.2165459918        4.0182253352  MEMB      11              0.0000000000
      1447        11  DOPC      C211            7.0969733923       10.2477702591        5.8080128402  MEMB      11              0.0000000000
      1448        11  DOPC      H11R            7.4958867525       10.8166558932        6.6763226827  MEMB      11              0.0000000000
      1449        11  DOPC      H11S            6.4654457957        9.4318029685        6.2295986131  MEMB      11              0.0000000000
      1450        11  DOPC      C212            6.1974715473       11.1728076844        4.9653032138  MEMB      11              0.0000000000
      1451        11  DOPC      H12R            5.4917043128       11.6914032470        5.6530731963  MEMB      11              0.0000000000
      1452        11  DOPC      H12S            5.5889484524       10.5361394240        4.2836702733  MEMB      11              0.0000000000
      1453        11  DOPC      C213            6.9204033115       12.2320158629        4.1043373166  MEMB      11              0.0000000000
      1454        11  DOPC      H13R            6.1567094767       12.7075870893        3.4537198712  MEMB      11              0.0000000000
      1455        11  DOPC      H13S            7.6637660442       11.7481770509        3.4324121499  MEMB      11              0.0000000000
      1456        11  DOPC      C214            7.6454383729       13.3095457857        4.9193424107  MEMB      11              0.0000000000
      1457        11  DOPC      H14R            8.6222698333       12.8873836388        5.2351764940  MEMB      11              0.0000000000
      1458        11  DOPC      H14S            7.0696158277       13.5177579481        5.8487532048  MEMB      11              0.0000000000
      1459        11  DOPC      C215            7.8893975980       14.6537416717        4.2011457770  MEMB      11              0.0000000000
      1460        11  DOPC      H15R            8.7143595057       15.1584706174        4.7551823322  MEMB      11              0.0000000000
      1461        11  DOPC      H15S            6.9926686551       15.2944785963        4.3073108803  MEMB      11              0.0000000000
      1462        11  DOPC      C216            8.2700207396       14.6136626976        2.7069271521  MEMB      11              0.0000000000
      1463        11  DOPC      H16R            8.7079795730       13.6307125478        2.4444898430  MEMB      11              0.0000000000
      1464        11  DOPC      H16S            9.0522987627       15.3922432704        2.5476826818  MEMB      11              0.0000000000
      1465        11  DOPC      C217            7.1244200352       14.9870164437        1.7514984884  MEMB      11              0.0000000000
      1466        11  DOPC      H17R            6.7509532351       15.9819666073        2.0571555939  MEMB      11              0.0000000000
      1467        11  DOPC      H17S            6.2922202921       14.2586494647        1.8509487402  MEMB      11              0.0000000000
      1468        11  DOPC      C218            7.5212051460       15.1288313133        0.2826248258  MEMB      11              0.0000000000
      1469        11  DOPC      H18R            8.2756038627       15.9361724928        0.1675527430  MEMB      11              0.0000000000
      1470        11  DOPC      H18S            6.6303578872       15.3887829720       -0.3309590518  MEMB      11              0.0000000000
      1471        11  DOPC      H18T            7.9530560512       14.1859900754       -0.1036637040  MEMB      11              0.0000000000
      1472        11  DOPC      C33             8.6072394359       16.1668715794       11.6356890594  MEMB      11              0.0000000000
      1473        11  DOPC      H3X             9.1933847284       17.0809704682       11.4298739549  MEMB      11              0.0000000000
      1474        11  DOPC      H3Y             7.6199527621       16.2578510170       11.1212180284  MEMB      11              0.0000000000
      1475        11  DOPC      C34             9.3535023226       14.9721893701       10.9961408681  MEMB      11              0.0000000000
      1476        11  DOPC      H4X             9.1970097026       15.0341531641        9.8935819840  MEMB      11              0.0000000000
      1477        11  DOPC      H4Y             8.9021213785       14.0127555678       11.3305491431  MEMB      11              0.0000000000
      1478        11  DOPC      C35            10.8726521348       14.9947200544       11.2700881358  MEMB      11              0.0000000000
      1479        11  DOPC      H5X            11.1147237563       14.1798781627       11.9868130222  MEMB      11              0.0000000000
      1480        11  DOPC      H5Y            11.1223326234       15.9667189972       11.7528005401  MEMB      11              0.0000000000
      1481        11  DOPC      C36            11.8596275950       14.9192142156       10.0894029844  MEMB      11              0.0000000000
      1482        11  DOPC      H6X            11.8972151271       15.8445193743        9.4812511775  MEMB      11              0.0000000000
      1483        11  DOPC      H6Y            12.8726516688       14.8174231494       10.5435352130  MEMB      11              0.0000000000
      1484        11  DOPC      C37            11.6538416335       13.7739381351        9.1117937513  MEMB      11              0.0000000000
      1485        11  DOPC      H7X            11.4104086916       12.8547704059        9.6875650185  MEMB      11              0.0000000000
      1486        11  DOPC      H7Y            10.7863411107       13.9988530344        8.4551818382  MEMB      11              0.0000000000
      1487        11  DOPC      C38            12.9494634945       13.5452057576        8.3073782232  MEMB      11              0.0000000000
      1488        11  DOPC      H8X            12.8365711970       12.5983384141        7.7412968003  MEMB      11              0.0000000000
      1489        11  DOPC      H8Y            13.7450822466       13.3502508384        9.0614492887  MEMB      11              0.0000000000
      1490        11  DOPC      C39            13.4174268822       14.6773960341        7.4151915810  MEMB      11              0.0000000000
      1491        11  DOPC      H9X            14.4129156615       15.0637876586        7.6812414070  MEMB      11              0.0000000000
      1492        11  DOPC      C310           12.7936860222       15.2134517918        6.3441526442  MEMB      11              0.0000000000
      1493        11  DOPC      H10X           13.2904745595       16.0196051320        5.7804308415  MEMB      11              0.0000000000
      1494        11  DOPC      C311           11.4595878037       14.7816409461        5.7915225107  MEMB      11              0.0000000000
      1495        11  DOPC      H11X           11.1630232516       15.4026799074        4.9199433297  MEMB      11              0.0000000000
      1496        11  DOPC      H11Y           10.6643065574       14.9568254774        6.5484095236  MEMB      11              0.0000000000
      1497        11  DOPC      C312           11.4528070134       13.2878489163        5.4152305470  MEMB      11              0.0000000000
      1498        11  DOPC      H12X           10.6046478787       12.8120989860        5.9450189139  MEMB      11              0.0000000000
      1499        11  DOPC      H12Y           12.3578501145       12.7653347485        5.7929903059  MEMB      11              0.0000000000
      1500        11  DOPC      C313           11.3708219679       12.9346277424        3.9214277007  MEMB      11              0.0000000000
      1501        11  DOPC      H13X           11.9665652740       11.9994052057        3.8114338068  MEMB      11              0.0000000000
      1502        11  DOPC      H13Y           10.3224166823       12.6841016429        3.6531012176  MEMB      11              0.0000000000
      1503        11  DOPC      C314           11.8727014849       14.0066847253        2.9422721802  MEMB      11              0.0000000000
      1504        11  DOPC      H14X           11.0041872326       14.6315418875        2.6478548617  MEMB      11              0.0000000000
      1505        11  DOPC      H14Y           12.6005567280       14.6891809245        3.4375449582  MEMB      11              0.0000000000
      1506        11  DOPC      C315           12.5476905200       13.5059017596        1.6596330211  MEMB      11              0.0000000000
      1507        11  DOPC      H15X           13.6370146591       13.6335642208        1.7508937372  MEMB      11              0.0000000000
      1508        11  DOPC      H15Y           12.2732484018       14.2155057721        0.8529568536  MEMB      11              0.0000000000
      1509        11  DOPC      C316           12.2418441945       12.0804165349        1.1853388069  MEMB      11              0.0000000000
      1510        11  DOPC      H16X           13.1942842543       11.5110782215        1.0798206325  MEMB      11              0.0000000000
      1511        11  DOPC      H16Y           11.5967357993       11.5012254820        1.8735106085  MEMB      11              0.0000000000
      1512        11  DOPC      C317           11.5296220631       12.1581910959       -0.1521322055  MEMB      11              0.0000000000
      1513        11  DOPC      H17X           11.9215702131       13.0330100536       -0.6928721976  MEMB      11              0.0000000000
      1514        11  DOPC      H17Y           11.7787946979       11.3060091064       -0.7985172842  MEMB      11              0.0000000000
      1515        11  DOPC      C318           10.0229024513       12.2403994047        0.0098970680  MEMB      11              0.0000000000
      1516        11  DOPC      H18X            9.6620319552       11.3605322792        0.5819096945  MEMB      11              0.0000000000
      1517        11  DOPC      H18Y            9.7516811155       13.1539203576        0.5774482432  MEMB      11              0.0000000000
      1518        11  DOPC      H18Z            9.5158988218       12.2575307731       -0.9765853288  MEMB      11              0.0000000000
      1519        12  DOPC      N               3.4785805768       17.7743285958       20.3034461658  MEMB      12              0.0000000000
      1520        12  DOPC      C12             2.7459897718       17.5523392874       18.9846656463  MEMB      12              0.0000000000
      1521        12  DOPC      H12A            3.4115287847       16.9657195818       18.3402385043  MEMB      12              0.0000000000
      1522        12  DOPC      H12B            2.5700357174       18.5040596581       18.4843200589  MEMB      12              0.0000000000
      1523        12  DOPC      C13             2.5994517266       18.4000291558       21.3367319760  MEMB      12              0.0000000000
      1524        12  DOPC      H13A            1.6865559378       17.8123748259       21.4440222528  MEMB      12              0.0000000000
      1525        12  DOPC      H13B            3.0778220802       18.3851743048       22.3135565117  MEMB      12              0.0000000000
      1526        12  DOPC      H13C            2.3629637520       19.4342013663       21.0890305592  MEMB      12              0.0000000000
      1527        12  DOPC      C14             4.6446019964       18.6666155219       20.0193238531  MEMB      12              0.0000000000
      1528        12  DOPC      H14A            5.1745253403       18.3156934825       19.1391056022  MEMB      12              0.0000000000
      1529        12  DOPC      H14B            4.2922015340       19.6778655579       19.7790142661  MEMB      12              0.0000000000
      1530        12  DOPC      H14C            5.3381761851       18.7471853124       20.8410847866  MEMB      12              0.0000000000
      1531        12  DOPC      C15             3.8879706828       16.4206475087       20.8122865240  MEMB      12              0.0000000000
      1532        12  DOPC      H15A            4.3582846868       16.4618519990       21.7734036831  MEMB      12              0.0000000000
      1533        12  DOPC      H15B            4.4928788535       15.8932462484       20.0757771612  MEMB      12              0.0000000000
      1534        12  DOPC      H15C            2.9833872855       15.8079589969       20.8909036137  MEMB      12              0.0000000000
      1535        12  DOPC      C11             1.4292337127       16.7396005527       19.0439937971  MEMB      12              0.0000000000
      1536        12  DOPC      H11A            0.7855289313       17.1819196698       19.8276287513  MEMB      12              0.0000000000
      1537        12  DOPC      H11B            0.8883278359       16.8526067676       18.0743559497  MEMB      12              0.0000000000
      1538        12  DOPC      P               2.3329657548       14.4554165972       18.2441187161  MEMB      12              0.0000000000
      1539        12  DOPC      O13             2.1161217162       13.0289961392       18.5947188725  MEMB      12              0.0000000000
      1540        12  DOPC      O14             3.7150194816       14.9643889030       18.0760528438  MEMB      12              0.0000000000
      1541        12  DOPC      O12             1.6520548596       15.3597497845       19.3603065732  MEMB      12              0.0000000000
      1542        12  DOPC      O11             1.4730949791       14.8602966872       16.9942530866  MEMB      12              0.0000000000
      1543        12  DOPC      C1              0.5405195408       13.9879137066       16.3753713051  MEMB      12              0.0000000000
      1544        12  DOPC      HA             -0.3643896549       13.8607458935       17.0108431964  MEMB      12              0.0000000000
      1545        12  DOPC      HB              0.9888903740       12.9813497278       16.1973857876  MEMB      12              0.0000000000
      1546        12  DOPC      C2              0.1418510489       14.5929354158       15.0062205832  MEMB      12              0.0000000000
      1547        12  DOPC      HS             -0.5203291559       13.8845300608       14.4529435386  MEMB      12              0.0000000000
      1548        12  DOPC      O21             1.3148987626       14.9313465245       14.2367176123  MEMB      12              0.0000000000
      1549        12  DOPC      C21             1.8315450051       13.8828747630       13.6470645172  MEMB      12              0.0000000000
      1550        12  DOPC      O22             1.3926473109       12.7454225837       13.7066803304  MEMB      12              0.0000000000
      1551        12  DOPC      C22             3.0433796747       14.2963948279       12.8156223968  MEMB      12              0.0000000000
      1552        12  DOPC      H2R             3.7764447890       13.4648931666       12.8532514435  MEMB      12              0.0000000000
      1553        12  DOPC      H2S             3.5016961885       15.1923551311       13.2847917045  MEMB      12              0.0000000000
      1554        12  DOPC      C3             -0.6683523838       15.8897291034       15.1721774257  MEMB      12              0.0000000000
      1555        12  DOPC      HX             -0.1352654709       16.5028093180       15.9409195987  MEMB      12              0.0000000000
      1556        12  DOPC      HY             -1.6897673917       15.6523756791       15.5411184398  MEMB      12              0.0000000000
      1557        12  DOPC      O31            -0.7379603810       16.5360931794       13.8864345488  MEMB      12              0.0000000000
      1558        12  DOPC      C31            -0.7727836561       17.8445947224       13.9394296097  MEMB      12              0.0000000000
      1559        12  DOPC      O32            -0.9201981334       18.5023765620       14.9555965301  MEMB      12              0.0000000000
      1560        12  DOPC      C32            -0.7790504966       18.4472416204       12.5292479096  MEMB      12              0.0000000000
      1561        12  DOPC      H2X            -1.8086962193       18.2823471737       12.1626051220  MEMB      12              0.0000000000
      1562        12  DOPC      H2Y            -0.6225044415       19.5380606956       12.6413561007  MEMB      12              0.0000000000
      1563        12  DOPC      C23             2.6594866535       14.6015334068       11.3478906853  MEMB      12              0.0000000000
      1564        12  DOPC      H3R             3.5463001320       15.0381369271       10.8361014182  MEMB      12              0.0000000000
      1565        12  DOPC      H3S             1.8541028138       15.3664995642       11.3270323827  MEMB      12              0.0000000000
      1566        12  DOPC      C24             2.2200459677       13.3548476719       10.5647177228  MEMB      12              0.0000000000
      1567        12  DOPC      H4R             1.3484425791       12.8780951896       11.0684893234  MEMB      12              0.0000000000
      1568        12  DOPC      H4S             3.0556947180       12.6195287171       10.5778794365  MEMB      12              0.0000000000
      1569        12  DOPC      C25             1.8338484661       13.6429204574        9.1046141355  MEMB      12              0.0000000000
      1570        12  DOPC      H5R             1.6408895294       12.6640750936        8.6045544977  MEMB      12              0.0000000000
      1571        12  DOPC      H5S             2.6834192021       14.1247999784        8.5745040528  MEMB      12              0.0000000000
      1572        12  DOPC      C26             0.5707958155       14.5079567842        8.9561953447  MEMB      12              0.0000000000
      1573        12  DOPC      H6R             0.7891811275       15.5681830146        9.2040099622  MEMB      12              0.0000000000
      1574        12  DOPC      H6S            -0.1894191201       14.1389425003        9.6840410149  MEMB      12              0.0000000000
      1575        12  DOPC      C27            -0.0429849722       14.4024199758        7.5546123418  MEMB      12              0.0000000000
      1576        12  DOPC      H7R            -1.0822588688       14.8021444241        7.5664965395  MEMB      12              0.0000000000
      1577        12  DOPC      H7S            -0.1143311345       13.3128823392        7.3263309084  MEMB      12              0.0000000000
      1578        12  DOPC      C28             0.7588844429       15.1431038528        6.4677047029  MEMB      12              0.0000000000
      1579        12  DOPC      H8R             1.8197321569       15.2423725747        6.7802477574  MEMB      12              0.0000000000
      1580        12  DOPC      H8S             0.3646376379       16.1827728676        6.3878142056  MEMB      12              0.0000000000
      1581        12  DOPC      C29             0.6229162619       14.4143390528        5.1539824778  MEMB      12              0.0000000000
      1582        12  DOPC      H9R            -0.4162144654       14.3504208264        4.7916807524  MEMB      12              0.0000000000
      1583        12  DOPC      C210            1.6044073440       13.8935329040        4.3908282622  MEMB      12              0.0000000000
      1584        12  DOPC      H10R            1.3116639012       13.3799965418        3.4609232245  MEMB      12              0.0000000000
      1585        12  DOPC      C211            3.0966305218       13.9015942300        4.6472636151  MEMB      12              0.0000000000
      1586        12  DOPC      H11R            3.4950380806       12.8793363088        4.4570463672  MEMB      12              0.0000000000
      1587        12  DOPC      H11S            3.3539583121       14.1440254983        5.7019251274  MEMB      12              0.0000000000
      1588        12  DOPC      C212            3.8681609017       14.8783759128        3.7373052305  MEMB      12              0.0000000000
      1589        12  DOPC      H12R            3.2524941064       15.1646973502        2.8544289815  MEMB      12              0.0000000000
      1590        12  DOPC      H12S            4.7760781103       14.3759914022        3.3381112430  MEMB      12              0.0000000000
      1591        12  DOPC      C213            4.3428022374       16.1550614570        4.4480439921  MEMB      12              0.0000000000
      1592        12  DOPC      H13R            5.1202568770       15.8999871394        5.1955051197  MEMB      12              0.0000000000
      1593        12  DOPC      H13S            3.5045951709       16.6272106908        4.9992641585  MEMB      12              0.0000000000
      1594        12  DOPC      C214            4.9020969223       17.1392719419        3.4256845645  MEMB      12              0.0000000000
      1595        12  DOPC      H14R            4.5738709035       16.7827877616        2.4174871511  MEMB      12              0.0000000000
      1596        12  DOPC      H14S            6.0089046688       17.1652481538        3.4420123604  MEMB      12              0.0000000000
      1597        12  DOPC      C215            4.3765060969       18.5548357193        3.5343514185  MEMB      12              0.0000000000
      1598        12  DOPC      H15R            4.7224369945       19.0827386844        4.4484518442  MEMB      12              0.0000000000
      1599        12  DOPC      H15S            3.2748744118       18.4992650475        3.5775294254  MEMB      12              0.0000000000
      1600        12  DOPC      C216            4.7099324544       19.2783893124        2.2388387963  MEMB      12              0.0000000000
      1601        12  DOPC      H16R            4.4272660877       18.6293193506        1.3769595473  MEMB      12              0.0000000000
      1602        12  DOPC      H16S            5.7976074002       19.4550916998        2.1639676480  MEMB      12              0.0000000000
      1603        12  DOPC      C217            3.9453684895       20.5763752917        2.1049879387  MEMB      12              0.0000000000
      1604        12  DOPC      H17R            4.5580631364       21.2150932702        1.4243849725  MEMB      12              0.0000000000
      1605        12  DOPC      H17S            3.8720541766       21.0730157964        3.1037379990  MEMB      12              0.0000000000
      1606        12  DOPC      C218            2.5637860101       20.4114261119        1.4724958283  MEMB      12              0.0000000000
      1607        12  DOPC      H18R            2.5433055429       19.5921920496        0.7293135977  MEMB      12              0.0000000000
      1608        12  DOPC      H18S            2.2442849313       21.3682463805        1.0126752996  MEMB      12              0.0000000000
      1609        12  DOPC      H18T            1.7896964900       20.1386910425        2.1975915582  MEMB      12              0.0000000000
      1610        12  DOPC      C33             0.2408412520       17.8952905780       11.4965845810  MEMB      12              0.0000000000
      1611        12  DOPC      H3X             0.2003752318       16.7825338069       11.4979864623  MEMB      12              0.0000000000
      1612        12  DOPC      H3Y             1.2695602670       18.1908702821       11.7944529339  MEMB      12              0.0000000000
      1613        12  DOPC      C34            -0.0522259634       18.3726011664       10.0508402252  MEMB      12              0.0000000000
      1614        12  DOPC      H4X             0.7459534658       17.9749452165        9.3831239984  MEMB      12              0.0000000000
      1615        12  DOPC      H4Y             0.0003615383       19.4814130261       10.0047906681  MEMB      12              0.0000000000
      1616        12  DOPC      C35            -1.4338284797       17.8661659492        9.5830323491  MEMB      12              0.0000000000
      1617        12  DOPC      H5X            -2.2245685386       18.3150417707       10.2208385245  MEMB      12              0.0000000000
      1618        12  DOPC      H5Y            -1.4483278210       16.7626378643        9.7382332727  MEMB      12              0.0000000000
      1619        12  DOPC      C36            -1.8839536525       18.1218363117        8.1350185774  MEMB      12              0.0000000000
      1620        12  DOPC      H6X            -1.9833572395       19.2121753219        7.9567940532  MEMB      12              0.0000000000
      1621        12  DOPC      H6Y            -1.0982346459       17.7333732935        7.4534158097  MEMB      12              0.0000000000
      1622        12  DOPC      C37            -3.2436762427       17.3953101783        7.8935666455  MEMB      12              0.0000000000
      1623        12  DOPC      H7X            -3.0687371822       16.3146025917        8.0901260905  MEMB      12              0.0000000000
      1624        12  DOPC      H7Y            -3.9327897304       17.7573793744        8.6819980003  MEMB      12              0.0000000000
      1625        12  DOPC      C38            -3.9765660127       17.5175031448        6.5242379917  MEMB      12              0.0000000000
      1626        12  DOPC      H8X            -4.4701854382       18.5136034164        6.4604119440  MEMB      12              0.0000000000
      1627        12  DOPC      H8Y            -4.7753119952       16.7456591804        6.4651482146  MEMB      12              0.0000000000
      1628        12  DOPC      C39            -2.9683075793       17.3723334290        5.4251417849  MEMB      12              0.0000000000
      1629        12  DOPC      H9X            -2.0741253888       17.9263971889        5.7028179616  MEMB      12              0.0000000000
      1630        12  DOPC      C310           -2.9541427960       16.8008229745        4.2037242908  MEMB      12              0.0000000000
      1631        12  DOPC      H10X           -1.9977446910       16.7937214988        3.6701461073  MEMB      12              0.0000000000
      1632        12  DOPC      C311           -3.9752183208       16.0523533478        3.4113116007  MEMB      12              0.0000000000
      1633        12  DOPC      H11X           -4.9845815355       16.1086584169        3.8796729044  MEMB      12              0.0000000000
      1634        12  DOPC      H11Y           -3.6697612031       14.9862143135        3.3956370809  MEMB      12              0.0000000000
      1635        12  DOPC      C312           -4.0658185269       16.5487993141        1.9386074754  MEMB      12              0.0000000000
      1636        12  DOPC      H12X           -4.4653954727       17.5817445925        1.9337523156  MEMB      12              0.0000000000
      1637        12  DOPC      H12Y           -4.8567901278       15.9558415019        1.4565008391  MEMB      12              0.0000000000
      1638        12  DOPC      C313           -2.7916816562       16.4736982661        1.0350131005  MEMB      12              0.0000000000
      1639        12  DOPC      H13X           -2.9999625116       17.0887811032        0.1305289862  MEMB      12              0.0000000000
      1640        12  DOPC      H13Y           -1.9350376376       16.9470868517        1.5523606694  MEMB      12              0.0000000000
      1641        12  DOPC      C314           -2.4619120446       15.0431000922        0.5402996139  MEMB      12              0.0000000000
      1642        12  DOPC      H14X           -2.3105545942       14.3910172339        1.4270792832  MEMB      12              0.0000000000
      1643        12  DOPC      H14Y           -3.3640403252       14.7029703937       -0.0006508852  MEMB      12              0.0000000000
      1644        12  DOPC      C315           -1.3353793395       14.7771569680       -0.4924065968  MEMB      12              0.0000000000
      1645        12  DOPC      H15X           -1.5689930303       15.2445184258       -1.4742024486  MEMB      12              0.0000000000
      1646        12  DOPC      H15Y           -1.3059521189       13.6727037895       -0.6569965321  MEMB      12              0.0000000000
      1647        12  DOPC      C316            0.0625368417       15.1974010508       -0.0455874184  MEMB      12              0.0000000000
      1648        12  DOPC      H16X            0.1170481110       16.3054398481       -0.1343369967  MEMB      12              0.0000000000
      1649        12  DOPC      H16Y            0.1695430593       14.8892476713        1.0181531279  MEMB      12              0.0000000000
      1650        12  DOPC      C317            1.2200589412       14.5909899070       -0.8585419028  MEMB      12              0.0000000000
      1651        12  DOPC      H17X            1.4584743915       13.5683756754       -0.4888840609  MEMB      12              0.0000000000
      1652        12  DOPC      H17Y            0.8401363273       14.4856323737       -1.8894902387  MEMB      12              0.0000000000
      1653        12  DOPC      C318            2.5049372457       15.4316417175       -0.9324035719  MEMB      12              0.0000000000
      1654        12  DOPC      H18X            2.2633955007       16.5000512401       -1.1235793915  MEMB      12              0.0000000000
      1655        12  DOPC      H18Y            3.0901772777       15.3641930459        0.0090447521  MEMB      12              0.0000000000
      1656        12  DOPC      H18Z            3.1536758264       15.0781936499       -1.7646919425  MEMB      12              0.0000000000
      1657        13  DOPC      N               9.9179064514      -10.7218559638       20.8903438447  MEMB      13              0.0000000000
      1658        13  DOPC      C12             9.2338757276      -12.0104998857       20.4335069277  MEMB      13              0.0000000000
      1659        13  DOPC      H12A            8.1754492822      -11.9492192508       20.6296264867  MEMB      13              0.0000000000
      1660        13  DOPC      H12B            9.6388112804      -12.8109819311       21.0378998729  MEMB      13              0.0000000000
      1661        13  DOPC      C13             9.6697610308       -9.6678339797       19.8556593818  MEMB      13              0.0000000000
      1662        13  DOPC      H13A           10.0835446875      -10.0022142361       18.8995309937  MEMB      13              0.0000000000
      1663        13  DOPC      H13B            8.6110284886       -9.5442170396       19.6746387445  MEMB      13              0.0000000000
      1664        13  DOPC      H13C           10.1075439160       -8.7104393773       20.0918962372  MEMB      13              0.0000000000
      1665        13  DOPC      C14            11.4111794501      -10.9491677537       20.9719794715  MEMB      13              0.0000000000
      1666        13  DOPC      H14A           11.9704811239      -10.0325783703       21.0939004776  MEMB      13              0.0000000000
      1667        13  DOPC      H14B           11.7002519837      -11.6442627374       21.7509639429  MEMB      13              0.0000000000
      1668        13  DOPC      H14C           11.7495901600      -11.4107699312       20.0316413311  MEMB      13              0.0000000000
      1669        13  DOPC      C15             9.4041172239      -10.3560307794       22.2422584228  MEMB      13              0.0000000000
      1670        13  DOPC      H15A            9.9801890846       -9.5547284114       22.6853128279  MEMB      13              0.0000000000
      1671        13  DOPC      H15B            9.5030936196      -11.1885580579       22.9383511424  MEMB      13              0.0000000000
      1672        13  DOPC      H15C            8.3494902907      -10.0918505777       22.2312621293  MEMB      13              0.0000000000
      1673        13  DOPC      C11             9.4148855125      -12.4248623618       18.9558795880  MEMB      13              0.0000000000
      1674        13  DOPC      H11A            8.9936982963      -13.4435728205       18.7822406258  MEMB      13              0.0000000000
      1675        13  DOPC      H11B            8.8592407814      -11.7337643530       18.2819701925  MEMB      13              0.0000000000
      1676        13  DOPC      P              11.6188239202      -13.3058277560       17.7385790019  MEMB      13              0.0000000000
      1677        13  DOPC      O13            10.8943464161      -14.5992225458       17.6302379290  MEMB      13              0.0000000000
      1678        13  DOPC      O14            12.9646038907      -13.3012987375       18.3531978240  MEMB      13              0.0000000000
      1679        13  DOPC      O12            10.7950357325      -12.3690737830       18.6817735466  MEMB      13              0.0000000000
      1680        13  DOPC      O11            11.5775776735      -12.3909831586       16.4309284357  MEMB      13              0.0000000000
      1681        13  DOPC      C1             11.5035115272      -10.9671727026       16.6510356153  MEMB      13              0.0000000000
      1682        13  DOPC      HA             12.2046966674      -10.6268746490       17.4518829995  MEMB      13              0.0000000000
      1683        13  DOPC      HB             10.4707569337      -10.7032325329       16.9644813914  MEMB      13              0.0000000000
      1684        13  DOPC      C2             11.8178562853      -10.0993570824       15.3986702139  MEMB      13              0.0000000000
      1685        13  DOPC      HS             11.4419824290       -9.0707520238       15.6111574378  MEMB      13              0.0000000000
      1686        13  DOPC      O21            11.2249688681      -10.5696286342       14.1919135458  MEMB      13              0.0000000000
      1687        13  DOPC      C21             9.9649713753      -10.8820748855       14.1889554487  MEMB      13              0.0000000000
      1688        13  DOPC      O22             9.1211192586      -10.5525555069       15.0070074778  MEMB      13              0.0000000000
      1689        13  DOPC      C22             9.6738300364      -11.5313378828       12.8418612167  MEMB      13              0.0000000000
      1690        13  DOPC      H2R            10.0597498621      -10.7925571033       12.1101743515  MEMB      13              0.0000000000
      1691        13  DOPC      H2S             8.5959278685      -11.6197586750       12.6669007247  MEMB      13              0.0000000000
      1692        13  DOPC      C3             13.3423765999       -9.9809352815       15.1302526085  MEMB      13              0.0000000000
      1693        13  DOPC      HX             13.8228385087       -9.5556434413       16.0388832908  MEMB      13              0.0000000000
      1694        13  DOPC      HY             13.4658897495       -9.2439518575       14.3081907759  MEMB      13              0.0000000000
      1695        13  DOPC      O31            13.9624400968      -11.2483212961       14.8162397949  MEMB      13              0.0000000000
      1696        13  DOPC      C31            13.7851395778      -11.6359889518       13.5415651705  MEMB      13              0.0000000000
      1697        13  DOPC      O32            13.4404815565      -10.8926870658       12.6429068334  MEMB      13              0.0000000000
      1698        13  DOPC      C32            14.1289638448      -13.1016636959       13.3360783576  MEMB      13              0.0000000000
      1699        13  DOPC      H2X            14.8134436162      -13.4202963501       14.1275897591  MEMB      13              0.0000000000
      1700        13  DOPC      H2Y            13.2035823824      -13.7042037225       13.4257300495  MEMB      13              0.0000000000
      1701        13  DOPC      C23            10.3323957128      -12.9205424491       12.7021339204  MEMB      13              0.0000000000
      1702        13  DOPC      H3R             9.8368210980      -13.6626590250       13.3662939381  MEMB      13              0.0000000000
      1703        13  DOPC      H3S            11.3755963823      -12.8290607117       13.0719056721  MEMB      13              0.0000000000
      1704        13  DOPC      C24            10.4102374313      -13.4314673025       11.2485000589  MEMB      13              0.0000000000
      1705        13  DOPC      H4R             9.4737661782      -13.9619335290       10.9737384355  MEMB      13              0.0000000000
      1706        13  DOPC      H4S            11.2549528889      -14.1524111751       11.2207437510  MEMB      13              0.0000000000
      1707        13  DOPC      C25            10.6916576066      -12.2790795551       10.2699881187  MEMB      13              0.0000000000
      1708        13  DOPC      H5R            11.4066046149      -11.6240062020       10.8210309066  MEMB      13              0.0000000000
      1709        13  DOPC      H5S             9.7544015578      -11.7078940950       10.0853857012  MEMB      13              0.0000000000
      1710        13  DOPC      C26            11.3594747675      -12.6080439632        8.9303301770  MEMB      13              0.0000000000
      1711        13  DOPC      H6R            10.6376078535      -13.1218142614        8.2575249509  MEMB      13              0.0000000000
      1712        13  DOPC      H6S            12.2069036466      -13.3025058662        9.1210902132  MEMB      13              0.0000000000
      1713        13  DOPC      C27            11.8984253936      -11.3497472104        8.2015936964  MEMB      13              0.0000000000
      1714        13  DOPC      H7R            11.0473974238      -10.7819337291        7.7725357609  MEMB      13              0.0000000000
      1715        13  DOPC      H7S            12.5503116124      -11.6810757723        7.3698795399  MEMB      13              0.0000000000
      1716        13  DOPC      C28            12.7094503906      -10.3795294714        9.0801856066  MEMB      13              0.0000000000
      1717        13  DOPC      H8R            13.3465705204      -11.0082018671        9.7450958471  MEMB      13              0.0000000000
      1718        13  DOPC      H8S            11.9995907351       -9.8508621353        9.7570327568  MEMB      13              0.0000000000
      1719        13  DOPC      C29            13.6088410709       -9.3485797206        8.4441770267  MEMB      13              0.0000000000
      1720        13  DOPC      H9R            14.3164038829       -8.9641060048        9.1871301691  MEMB      13              0.0000000000
      1721        13  DOPC      C210           13.7214508466       -8.8377378190        7.2007818611  MEMB      13              0.0000000000
      1722        13  DOPC      H10R           14.5150933960       -8.0889696573        7.0550004901  MEMB      13              0.0000000000
      1723        13  DOPC      C211           12.9485464211       -9.1300174741        5.9375677188  MEMB      13              0.0000000000
      1724        13  DOPC      H11R           12.8395386363      -10.2219698608        5.7987595574  MEMB      13              0.0000000000
      1725        13  DOPC      H11S           13.5383223953       -8.7710528645        5.0621940027  MEMB      13              0.0000000000
      1726        13  DOPC      C212           11.5807535109       -8.4206583136        5.8923734984  MEMB      13              0.0000000000
      1727        13  DOPC      H12R           11.7874343154       -7.3474570069        5.6897693339  MEMB      13              0.0000000000
      1728        13  DOPC      H12S           11.0848902624       -8.4876699671        6.8866481477  MEMB      13              0.0000000000
      1729        13  DOPC      C213           10.5790057837       -8.9396221165        4.8393529079  MEMB      13              0.0000000000
      1730        13  DOPC      H13R           11.0204328989       -8.8529723386        3.8221917320  MEMB      13              0.0000000000
      1731        13  DOPC      H13S            9.6728867588       -8.2916827311        4.8734121207  MEMB      13              0.0000000000
      1732        13  DOPC      C214           10.1401863881      -10.3911539273        5.0828524844  MEMB      13              0.0000000000
      1733        13  DOPC      H14R            9.7273869346      -10.4966154126        6.1091567939  MEMB      13              0.0000000000
      1734        13  DOPC      H14S           11.0498989505      -11.0240809192        5.0155286566  MEMB      13              0.0000000000
      1735        13  DOPC      C215            9.0999479874      -10.9324045184        4.0915383553  MEMB      13              0.0000000000
      1736        13  DOPC      H15R            9.3421982561      -10.5701618565        3.0703995290  MEMB      13              0.0000000000
      1737        13  DOPC      H15S            8.0886391419      -10.5427913482        4.3519534970  MEMB      13              0.0000000000
      1738        13  DOPC      C216            9.0694772216      -12.4681366708        4.0732884730  MEMB      13              0.0000000000
      1739        13  DOPC      H16R            8.1973945526      -12.8167278404        3.4825232283  MEMB      13              0.0000000000
      1740        13  DOPC      H16S            8.9368135158      -12.8497166264        5.1097618038  MEMB      13              0.0000000000
      1741        13  DOPC      C217           10.3196795534      -13.1038357324        3.4489914229  MEMB      13              0.0000000000
      1742        13  DOPC      H17R           10.1771265678      -14.2048258727        3.4774011373  MEMB      13              0.0000000000
      1743        13  DOPC      H17S           11.2051551433      -12.8860402144        4.0831257193  MEMB      13              0.0000000000
      1744        13  DOPC      C218           10.6132892113      -12.6695758995        2.0057393474  MEMB      13              0.0000000000
      1745        13  DOPC      H18R            9.6695378628      -12.4470088107        1.4721526612  MEMB      13              0.0000000000
      1746        13  DOPC      H18S           11.1294577269      -13.4814457128        1.4510307101  MEMB      13              0.0000000000
      1747        13  DOPC      H18T           11.2542149820      -11.7628019451        1.9720719345  MEMB      13              0.0000000000
      1748        13  DOPC      C33            14.8687354155      -13.3809546029       12.0178064722  MEMB      13              0.0000000000
      1749        13  DOPC      H3X            14.3864839994      -12.8839186983       11.1489525927  MEMB      13              0.0000000000
      1750        13  DOPC      H3Y            14.8034258209      -14.4801099141       11.8575008771  MEMB      13              0.0000000000
      1751        13  DOPC      C34            16.3472698932      -12.9932160871       12.1491086794  MEMB      13              0.0000000000
      1752        13  DOPC      H4X            16.6940479746      -13.2179036629       13.1807267369  MEMB      13              0.0000000000
      1753        13  DOPC      H4Y            16.4429811078      -11.8982837748       12.0229081790  MEMB      13              0.0000000000
      1754        13  DOPC      C35            17.3015395316      -13.7606320623       11.2287225544  MEMB      13              0.0000000000
      1755        13  DOPC      H5X            17.2944192567      -14.8287415109       11.5236288693  MEMB      13              0.0000000000
      1756        13  DOPC      H5Y            18.3368644976      -13.3887654974       11.4042046884  MEMB      13              0.0000000000
      1757        13  DOPC      C36            16.9477518345      -13.6967622780        9.7414877556  MEMB      13              0.0000000000
      1758        13  DOPC      H6X            16.3449305482      -12.7917729294        9.5264774962  MEMB      13              0.0000000000
      1759        13  DOPC      H6Y            17.8971401797      -13.5962643441        9.1682931050  MEMB      13              0.0000000000
      1760        13  DOPC      C37            16.1880497985      -14.9501464537        9.2842466841  MEMB      13              0.0000000000
      1761        13  DOPC      H7X            16.8307407706      -15.8416845454        9.4636723220  MEMB      13              0.0000000000
      1762        13  DOPC      H7Y            15.2801547442      -15.0851502297        9.9085359570  MEMB      13              0.0000000000
      1763        13  DOPC      C38            15.7893970441      -14.9320090580        7.8018035242  MEMB      13              0.0000000000
      1764        13  DOPC      H8X            15.5318027768      -15.9835226659        7.5357938052  MEMB      13              0.0000000000
      1765        13  DOPC      H8Y            16.6786311451      -14.6451028269        7.1985988869  MEMB      13              0.0000000000
      1766        13  DOPC      C39            14.6402320325      -13.9923825531        7.5236043617  MEMB      13              0.0000000000
      1767        13  DOPC      H9X            14.4949979151      -13.1891972544        8.2635697348  MEMB      13              0.0000000000
      1768        13  DOPC      C310           13.7947065131      -14.0847624324        6.4808262050  MEMB      13              0.0000000000
      1769        13  DOPC      H10X           13.0048502023      -13.3333172753        6.3420658612  MEMB      13              0.0000000000
      1770        13  DOPC      C311           13.8544216487      -15.1395877856        5.4146646918  MEMB      13              0.0000000000
      1771        13  DOPC      H11X           12.8477686977      -15.5640739004        5.2069722202  MEMB      13              0.0000000000
      1772        13  DOPC      H11Y           14.4830436527      -15.9925831542        5.7491203591  MEMB      13              0.0000000000
      1773        13  DOPC      C312           14.4752634404      -14.6056274597        4.1168834224  MEMB      13              0.0000000000
      1774        13  DOPC      H12X           14.9783319372      -15.4394294506        3.5986279506  MEMB      13              0.0000000000
      1775        13  DOPC      H12Y           15.2861290264      -13.8728263922        4.3184801282  MEMB      13              0.0000000000
      1776        13  DOPC      C313           13.4717625128      -14.0766781073        3.0884329701  MEMB      13              0.0000000000
      1777        13  DOPC      H13X           12.5409958676      -14.6783278963        3.1199283854  MEMB      13              0.0000000000
      1778        13  DOPC      H13Y           13.2089701575      -13.0288083527        3.3465347675  MEMB      13              0.0000000000
      1779        13  DOPC      C314           14.0356470873      -14.1436616679        1.6617934100  MEMB      13              0.0000000000
      1780        13  DOPC      H14X           14.0584158976      -15.1910972201        1.3029677536  MEMB      13              0.0000000000
      1781        13  DOPC      H14Y           13.3553469563      -13.6131049570        0.9653674839  MEMB      13              0.0000000000
      1782        13  DOPC      C315           15.4601210361      -13.5820866131        1.5883290057  MEMB      13              0.0000000000
      1783        13  DOPC      H15X           15.8149170394      -13.6242654579        0.5341502517  MEMB      13              0.0000000000
      1784        13  DOPC      H15Y           16.1363401008      -14.2247941760        2.1910790243  MEMB      13              0.0000000000
      1785        13  DOPC      C316           15.5711673960      -12.1353455385        2.0882396993  MEMB      13              0.0000000000
      1786        13  DOPC      H16X           15.0538508560      -12.0316531944        3.0635145193  MEMB      13              0.0000000000
      1787        13  DOPC      H16Y           16.6329292284      -11.8551308709        2.2402366474  MEMB      13              0.0000000000
      1788        13  DOPC      C317           14.9573956182      -11.2261423210        1.0284639510  MEMB      13              0.0000000000
      1789        13  DOPC      H17X           15.6480426883      -11.2729111886        0.1569433042  MEMB      13              0.0000000000
      1790        13  DOPC      H17Y           14.0150795117      -11.7553628209        0.8086087023  MEMB      13              0.0000000000
      1791        13  DOPC      C318           14.4924116242       -9.7793358545        1.2410564316  MEMB      13              0.0000000000
      1792        13  DOPC      H18X           15.3366768986       -9.0675106608        1.1201504114  MEMB      13              0.0000000000
      1793        13  DOPC      H18Y           13.7165414724       -9.5312388488        0.4868792564  MEMB      13              0.0000000000
      1794        13  DOPC      H18Z           14.0200398942       -9.6535828845        2.2373828068  MEMB      13              0.0000000000
      1795        14  DOPC      N              17.9876681083        3.2207665766       19.5040128717  MEMB      14              0.0000000000
      1796        14  DOPC      C12            17.4330154996        3.4025120182       18.1033783521  MEMB      14              0.0000000000
      1797        14  DOPC      H12A           16.8448391701        2.5159461614       17.9051925850  MEMB      14              0.0000000000
      1798        14  DOPC      H12B           18.2472087528        3.4364946212       17.3960840917  MEMB      14              0.0000000000
      1799        14  DOPC      C13            18.9254846868        2.0791547132       19.5147491542  MEMB      14              0.0000000000
      1800        14  DOPC      H13A           18.4638196703        1.1571836195       19.2100368257  MEMB      14              0.0000000000
      1801        14  DOPC      H13B           19.8034046330        2.2900794885       18.9056329305  MEMB      14              0.0000000000
      1802        14  DOPC      H13C           19.3482583276        1.9357954295       20.5113238739  MEMB      14              0.0000000000
      1803        14  DOPC      C14            16.8717996456        2.9135773236       20.4580854158  MEMB      14              0.0000000000
      1804        14  DOPC      H14A           17.2202929195        2.7840720941       21.4746790914  MEMB      14              0.0000000000
      1805        14  DOPC      H14B           16.1433394585        3.7217319025       20.4027764350  MEMB      14              0.0000000000
      1806        14  DOPC      H14C           16.3391267961        2.0206181276       20.1323429051  MEMB      14              0.0000000000
      1807        14  DOPC      C15            18.7088159473        4.4559579248       19.9115099960  MEMB      14              0.0000000000
      1808        14  DOPC      H15A           18.0754233545        5.3165421319       19.6982707348  MEMB      14              0.0000000000
      1809        14  DOPC      H15B           19.6536703114        4.5141448995       19.3825695458  MEMB      14              0.0000000000
      1810        14  DOPC      H15C           18.8991517875        4.4376379477       20.9786379664  MEMB      14              0.0000000000
      1811        14  DOPC      C11            16.4987591318        4.6006513561       17.8254758688  MEMB      14              0.0000000000
      1812        14  DOPC      H11A           17.0633972126        5.5562871907       17.8532703486  MEMB      14              0.0000000000
      1813        14  DOPC      H11B           16.0976501134        4.4872186912       16.7863398306  MEMB      14              0.0000000000
      1814        14  DOPC      P              14.0044575596        5.0685967658       18.4917592986  MEMB      14              0.0000000000
      1815        14  DOPC      O13            14.0272134999        6.0729220165       17.4040390810  MEMB      14              0.0000000000
      1816        14  DOPC      O14            13.3556441335        5.4314255130       19.7762012132  MEMB      14              0.0000000000
      1817        14  DOPC      O12            15.4739878100        4.6403133065       18.8068408200  MEMB      14              0.0000000000
      1818        14  DOPC      O11            13.3679057734        3.7127675332       17.9781124586  MEMB      14              0.0000000000
      1819        14  DOPC      C1             12.9093096725        2.7340269562       18.9245359109  MEMB      14              0.0000000000
      1820        14  DOPC      HA             11.9921947547        3.0978986663       19.4390943298  MEMB      14              0.0000000000
      1821        14  DOPC      HB             13.6879189384        2.5380775210       19.7009610436  MEMB      14              0.0000000000
      1822        14  DOPC      C2             12.5922842252        1.3523362671       18.2520060996  MEMB      14              0.0000000000
      1823        14  DOPC      HS             12.7287492213        0.5540531344       19.0150142534  MEMB      14              0.0000000000
      1824        14  DOPC      O21            13.4462679851        1.0814136204       17.1318501351  MEMB      14              0.0000000000
      1825        14  DOPC      C21            14.7453791987        1.2280469267       17.2784759032  MEMB      14              0.0000000000
      1826        14  DOPC      O22            15.3823454076        1.2276635450       18.3231793086  MEMB      14              0.0000000000
      1827        14  DOPC      C22            15.3860861891        1.4479913823       15.9069598903  MEMB      14              0.0000000000
      1828        14  DOPC      H2R            15.7900135031        2.4759966895       15.8766321563  MEMB      14              0.0000000000
      1829        14  DOPC      H2S            14.5728225060        1.4036558973       15.1596917842  MEMB      14              0.0000000000
      1830        14  DOPC      C3             11.1042074108        1.2440949342       17.7644642086  MEMB      14              0.0000000000
      1831        14  DOPC      HX             10.4833319967        0.8770680558       18.6120703924  MEMB      14              0.0000000000
      1832        14  DOPC      HY             11.0287294358        0.4430512641       16.9911803959  MEMB      14              0.0000000000
      1833        14  DOPC      O31            10.5526722729        2.5051418966       17.3104486199  MEMB      14              0.0000000000
      1834        14  DOPC      C31            10.7727597878        2.8032003821       16.0277457247  MEMB      14              0.0000000000
      1835        14  DOPC      O32            11.3348060453        2.0893764447       15.2212669436  MEMB      14              0.0000000000
      1836        14  DOPC      C32            10.0428344963        4.1065578772       15.6848283494  MEMB      14              0.0000000000
      1837        14  DOPC      H2X             9.7223516222        4.0310651673       14.6248133794  MEMB      14              0.0000000000
      1838        14  DOPC      H2Y             9.1352553185        4.1744596952       16.3183847183  MEMB      14              0.0000000000
      1839        14  DOPC      C23            16.4936785540        0.4008216597       15.6511138809  MEMB      14              0.0000000000
      1840        14  DOPC      H3R            15.9843271940       -0.5841159593       15.6460590072  MEMB      14              0.0000000000
      1841        14  DOPC      H3S            17.2299803807        0.3944716112       16.4875283110  MEMB      14              0.0000000000
      1842        14  DOPC      C24            17.2490380567        0.5134169099       14.3163330177  MEMB      14              0.0000000000
      1843        14  DOPC      H4R            17.8325044010       -0.4295564926       14.1837213144  MEMB      14              0.0000000000
      1844        14  DOPC      H4S            17.9874296064        1.3431199088       14.3509488236  MEMB      14              0.0000000000
      1845        14  DOPC      C25            16.3314938993        0.6710379244       13.0929951414  MEMB      14              0.0000000000
      1846        14  DOPC      H5R            16.9441648804        0.4714450218       12.1805223766  MEMB      14              0.0000000000
      1847        14  DOPC      H5S            15.9716425781        1.7208679412       13.0272143577  MEMB      14              0.0000000000
      1848        14  DOPC      C26            15.1275176958       -0.2884761418       13.1104972550  MEMB      14              0.0000000000
      1849        14  DOPC      H6R            14.3230999572        0.0408259279       13.7986657286  MEMB      14              0.0000000000
      1850        14  DOPC      H6S            15.4765215880       -1.2801065488       13.4724261348  MEMB      14              0.0000000000
      1851        14  DOPC      C27            14.4777661330       -0.4671698505       11.7442153143  MEMB      14              0.0000000000
      1852        14  DOPC      H7R            13.7910995959       -1.3425649660       11.8140196826  MEMB      14              0.0000000000
      1853        14  DOPC      H7S            15.2972912059       -0.6912000279       11.0316939619  MEMB      14              0.0000000000
      1854        14  DOPC      C28            13.7140784129        0.7670423935       11.2529573178  MEMB      14              0.0000000000
      1855        14  DOPC      H8R            14.3755230816        1.6518368175       11.3132166441  MEMB      14              0.0000000000
      1856        14  DOPC      H8S            12.8517046396        0.9597961642       11.9279028062  MEMB      14              0.0000000000
      1857        14  DOPC      C29            13.2147124561        0.5346542265        9.8593084085  MEMB      14              0.0000000000
      1858        14  DOPC      H9R            12.6336320244       -0.3819291513        9.7624349390  MEMB      14              0.0000000000
      1859        14  DOPC      C210           13.4480000898        1.2391222850        8.7434414989  MEMB      14              0.0000000000
      1860        14  DOPC      H10R           12.9162047958        0.9604179570        7.8192693005  MEMB      14              0.0000000000
      1861        14  DOPC      C211           14.2946693882        2.4648953844        8.6243348442  MEMB      14              0.0000000000
      1862        14  DOPC      H11R           14.8201120960        2.6781270417        9.5764054242  MEMB      14              0.0000000000
      1863        14  DOPC      H11S           13.6528592328        3.3402193531        8.3955579186  MEMB      14              0.0000000000
      1864        14  DOPC      C212           15.3664026014        2.2810016080        7.5381144583  MEMB      14              0.0000000000
      1865        14  DOPC      H12R           15.9881798683        1.3878589957        7.7789267025  MEMB      14              0.0000000000
      1866        14  DOPC      H12S           16.0340039943        3.1690976645        7.5601223727  MEMB      14              0.0000000000
      1867        14  DOPC      C213           14.8026687509        2.1320348653        6.1197665187  MEMB      14              0.0000000000
      1868        14  DOPC      H13R           14.1547124782        1.2423441494        6.0757349095  MEMB      14              0.0000000000
      1869        14  DOPC      H13S           15.6414905225        1.9711790055        5.4057650040  MEMB      14              0.0000000000
      1870        14  DOPC      C214           13.9189375985        3.2944909510        5.6708394068  MEMB      14              0.0000000000
      1871        14  DOPC      H14R           13.9908592142        4.1185757718        6.4089255108  MEMB      14              0.0000000000
      1872        14  DOPC      H14S           12.8541346414        2.9733052898        5.6644695368  MEMB      14              0.0000000000
      1873        14  DOPC      C215           14.3174186144        3.8121653124        4.2922375299  MEMB      14              0.0000000000
      1874        14  DOPC      H15R           15.4143919349        3.7059512438        4.1425982018  MEMB      14              0.0000000000
      1875        14  DOPC      H15S           14.0956442563        4.9021260207        4.2577502737  MEMB      14              0.0000000000
      1876        14  DOPC      C216           13.5324008252        3.1240181832        3.1717979862  MEMB      14              0.0000000000
      1877        14  DOPC      H16R           13.4752564730        2.0304056011        3.3603403647  MEMB      14              0.0000000000
      1878        14  DOPC      H16S           14.0808261464        3.2467620736        2.2112533974  MEMB      14              0.0000000000
      1879        14  DOPC      C217           12.1243958538        3.7348255159        3.0580832656  MEMB      14              0.0000000000
      1880        14  DOPC      H17R           12.1774390887        4.8462090054        2.9979559100  MEMB      14              0.0000000000
      1881        14  DOPC      H17S           11.5576912478        3.5002779084        3.9795632876  MEMB      14              0.0000000000
      1882        14  DOPC      C218           11.3324310269        3.2431256674        1.8670221681  MEMB      14              0.0000000000
      1883        14  DOPC      H18R           11.5837929495        3.8390969840        0.9601939408  MEMB      14              0.0000000000
      1884        14  DOPC      H18S           10.2386738746        3.3345253423        2.0416890012  MEMB      14              0.0000000000
      1885        14  DOPC      H18T           11.5674118653        2.1755305517        1.6722136619  MEMB      14              0.0000000000
      1886        14  DOPC      C33            10.9104601465        5.3677071203       15.8995925972  MEMB      14              0.0000000000
      1887        14  DOPC      H3X            11.7868447642        5.1364278411       16.5415280122  MEMB      14              0.0000000000
      1888        14  DOPC      H3Y            10.3149004055        6.1329652950       16.4456045126  MEMB      14              0.0000000000
      1889        14  DOPC      C34            11.4157664725        5.9963879374       14.5985813742  MEMB      14              0.0000000000
      1890        14  DOPC      H4X            12.0399390682        6.8811788087       14.8659022406  MEMB      14              0.0000000000
      1891        14  DOPC      H4Y            10.5521979226        6.3529464860       13.9948267070  MEMB      14              0.0000000000
      1892        14  DOPC      C35            12.2694619502        5.0281498250       13.7778155983  MEMB      14              0.0000000000
      1893        14  DOPC      H5X            11.6781634659        4.1310161569       13.4897231777  MEMB      14              0.0000000000
      1894        14  DOPC      H5Y            13.1203546098        4.6801950604       14.4119053343  MEMB      14              0.0000000000
      1895        14  DOPC      C36            12.8105340179        5.6739258913       12.5043767788  MEMB      14              0.0000000000
      1896        14  DOPC      H6X            11.9791546606        6.0895477887       11.8944945831  MEMB      14              0.0000000000
      1897        14  DOPC      H6Y            13.4619064505        6.5284619244       12.8023908311  MEMB      14              0.0000000000
      1898        14  DOPC      C37            13.6234821087        4.6693840818       11.6836099309  MEMB      14              0.0000000000
      1899        14  DOPC      H7X            14.1923924972        4.0256476033       12.3944976357  MEMB      14              0.0000000000
      1900        14  DOPC      H7Y            12.9501690124        4.0027463658       11.0990619307  MEMB      14              0.0000000000
      1901        14  DOPC      C38            14.6464309892        5.3660246678       10.7939574067  MEMB      14              0.0000000000
      1902        14  DOPC      H8X            15.4187907854        4.6372204554       10.4622382340  MEMB      14              0.0000000000
      1903        14  DOPC      H8Y            15.1669505379        6.1399111685       11.4026892192  MEMB      14              0.0000000000
      1904        14  DOPC      C39            14.0004010359        6.0044351150        9.6061169545  MEMB      14              0.0000000000
      1905        14  DOPC      H9X            12.9469570302        5.7631202754        9.3884491338  MEMB      14              0.0000000000
      1906        14  DOPC      C310           14.7064335089        6.7297912994        8.7465020736  MEMB      14              0.0000000000
      1907        14  DOPC      H10X           14.1968781588        7.1519325526        7.8675171222  MEMB      14              0.0000000000
      1908        14  DOPC      C311           16.1910013027        6.9898892517        8.8515353095  MEMB      14              0.0000000000
      1909        14  DOPC      H11X           16.6034255205        6.8075696049        9.8663917387  MEMB      14              0.0000000000
      1910        14  DOPC      H11Y           16.3969614952        8.0505886213        8.6199767618  MEMB      14              0.0000000000
      1911        14  DOPC      C312           16.9665791435        6.1300137137        7.8407523260  MEMB      14              0.0000000000
      1912        14  DOPC      H12X           16.9879890595        5.0745361138        8.1925684450  MEMB      14              0.0000000000
      1913        14  DOPC      H12Y           18.0238978940        6.4723725530        7.7984336185  MEMB      14              0.0000000000
      1914        14  DOPC      C313           16.3478926803        6.1738572489        6.4364499324  MEMB      14              0.0000000000
      1915        14  DOPC      H13X           17.0678448659        5.7421515003        5.7071683156  MEMB      14              0.0000000000
      1916        14  DOPC      H13Y           15.4504327873        5.5258004912        6.4338117363  MEMB      14              0.0000000000
      1917        14  DOPC      C314           15.9218887282        7.5767329071        5.9718810466  MEMB      14              0.0000000000
      1918        14  DOPC      H14X           15.4895532996        8.2269909117        6.7555353161  MEMB      14              0.0000000000
      1919        14  DOPC      H14Y           16.8569471024        8.0464975688        5.6373435504  MEMB      14              0.0000000000
      1920        14  DOPC      C315           14.9540469544        7.5848193889        4.8001022106  MEMB      14              0.0000000000
      1921        14  DOPC      H15X           14.6040863096        8.6278010495        4.6159132108  MEMB      14              0.0000000000
      1922        14  DOPC      H15Y           14.0604711605        6.9650302982        5.0242419586  MEMB      14              0.0000000000
      1923        14  DOPC      C316           15.7204870330        7.0907493150        3.5818098478  MEMB      14              0.0000000000
      1924        14  DOPC      H16X           16.6251811388        7.7380212561        3.5011162728  MEMB      14              0.0000000000
      1925        14  DOPC      H16Y           16.0610227178        6.0470506580        3.7535403808  MEMB      14              0.0000000000
      1926        14  DOPC      C317           14.9275649948        7.1963415295        2.2874897354  MEMB      14              0.0000000000
      1927        14  DOPC      H17X           13.9344308787        7.5667126727        2.6109826597  MEMB      14              0.0000000000
      1928        14  DOPC      H17Y           15.3934303890        7.9631886502        1.6310714028  MEMB      14              0.0000000000
      1929        14  DOPC      C318           14.7278777991        5.8908225990        1.5157208481  MEMB      14              0.0000000000
      1930        14  DOPC      H18X           14.2723702614        6.0637729885        0.5196549368  MEMB      14              0.0000000000
      1931        14  DOPC      H18Y           15.6663583401        5.3118802238        1.3981091093  MEMB      14              0.0000000000
      1932        14  DOPC      H18Z           14.0177687886        5.2692023195        2.0724629840  MEMB      14              0.0000000000
      1933        15  DOPC      N             -10.0081344246      -12.4547470889       19.4845597472  MEMB      15              0.0000000000
      1934        15  DOPC      C12           -11.2662171440      -12.6419237581       20.3372788591  MEMB      15              0.0000000000
      1935        15  DOPC      H12A          -11.7917445687      -11.6838440068       20.3844484078  MEMB      15              0.0000000000
      1936        15  DOPC      H12B          -10.9682317844      -12.9327391264       21.3348484775  MEMB      15              0.0000000000
      1937        15  DOPC      C13            -8.8041281156      -12.1574014423       20.3335165263  MEMB      15              0.0000000000
      1938        15  DOPC      H13A           -7.9054503988      -12.1574166338       19.7366985549  MEMB      15              0.0000000000
      1939        15  DOPC      H13B           -8.8831406411      -11.2319997762       20.8936164250  MEMB      15              0.0000000000
      1940        15  DOPC      H13C           -8.6754070226      -12.9452477990       21.0882247003  MEMB      15              0.0000000000
      1941        15  DOPC      C14           -10.3149053776      -11.3696611631       18.4926885164  MEMB      15              0.0000000000
      1942        15  DOPC      H14A           -9.5722501342      -11.3100372757       17.7199162953  MEMB      15              0.0000000000
      1943        15  DOPC      H14B          -11.2845940452      -11.5883366222       18.0276756809  MEMB      15              0.0000000000
      1944        15  DOPC      H14C          -10.4509786934      -10.4033430429       18.9661935062  MEMB      15              0.0000000000
      1945        15  DOPC      C15            -9.7255551305      -13.7306869428       18.7501913065  MEMB      15              0.0000000000
      1946        15  DOPC      H15A           -9.3509147339      -14.4810609560       19.4394539834  MEMB      15              0.0000000000
      1947        15  DOPC      H15B           -9.0003160886      -13.6008422776       17.9626466164  MEMB      15              0.0000000000
      1948        15  DOPC      H15C          -10.6568521489      -14.0859532871       18.3103001310  MEMB      15              0.0000000000
      1949        15  DOPC      C11           -12.3609345279      -13.6597050733       19.8731523139  MEMB      15              0.0000000000
      1950        15  DOPC      H11A          -11.9450658092      -14.6910736078       19.8991176024  MEMB      15              0.0000000000
      1951        15  DOPC      H11B          -13.1812023336      -13.6577993787       20.6315465518  MEMB      15              0.0000000000
      1952        15  DOPC      P             -13.8929118288      -12.1801375606       18.3598108599  MEMB      15              0.0000000000
      1953        15  DOPC      O13           -13.5817245763      -11.1193165351       19.3500771559  MEMB      15              0.0000000000
      1954        15  DOPC      O14           -15.3035956119      -12.6244710144       18.2680763658  MEMB      15              0.0000000000
      1955        15  DOPC      O12           -12.8748423766      -13.3883799652       18.5643447325  MEMB      15              0.0000000000
      1956        15  DOPC      O11           -13.4299726799      -11.5828095016       16.9766305887  MEMB      15              0.0000000000
      1957        15  DOPC      C1            -14.1415418330      -10.4679608781       16.4211318839  MEMB      15              0.0000000000
      1958        15  DOPC      HA            -13.4588392492       -9.5915977446       16.3487301941  MEMB      15              0.0000000000
      1959        15  DOPC      HB            -15.0167881670      -10.1434446110       17.0364792961  MEMB      15              0.0000000000
      1960        15  DOPC      C2            -14.6347677591      -10.8488043096       15.0072311284  MEMB      15              0.0000000000
      1961        15  DOPC      HS            -15.0316862044      -11.8902139931       15.0852327102  MEMB      15              0.0000000000
      1962        15  DOPC      O21           -13.4950693825      -10.7060550624       14.1190926534  MEMB      15              0.0000000000
      1963        15  DOPC      C21           -12.9668327692      -11.8480969941       13.7372116716  MEMB      15              0.0000000000
      1964        15  DOPC      O22           -13.5550811984      -12.9130903044       13.6707535891  MEMB      15              0.0000000000
      1965        15  DOPC      C22           -11.4562563836      -11.7145157322       13.4838175551  MEMB      15              0.0000000000
      1966        15  DOPC      H2R           -11.1477906290      -12.6897486668       13.0496838390  MEMB      15              0.0000000000
      1967        15  DOPC      H2S           -10.9665485956      -11.6007099514       14.4719473082  MEMB      15              0.0000000000
      1968        15  DOPC      C3            -15.8379405309       -9.9777805020       14.5381605419  MEMB      15              0.0000000000
      1969        15  DOPC      HX            -16.5416538129       -9.8698228246       15.3921138117  MEMB      15              0.0000000000
      1970        15  DOPC      HY            -16.4072961355      -10.5223914047       13.7473097816  MEMB      15              0.0000000000
      1971        15  DOPC      O31           -15.3818253296       -8.6744281032       14.1292884057  MEMB      15              0.0000000000
      1972        15  DOPC      C31           -15.0042318284       -8.6504274492       12.8411377327  MEMB      15              0.0000000000
      1973        15  DOPC      O32           -15.4025696976       -9.4175189309       11.9885081385  MEMB      15              0.0000000000
      1974        15  DOPC      C32           -13.9890819740       -7.5348681845       12.6406739166  MEMB      15              0.0000000000
      1975        15  DOPC      H2X           -14.1437261866       -6.7809602695       13.4355504380  MEMB      15              0.0000000000
      1976        15  DOPC      H2Y           -12.9926077775       -8.0019891365       12.7787290148  MEMB      15              0.0000000000
      1977        15  DOPC      C23           -10.9907095898      -10.5843123463       12.5338904569  MEMB      15              0.0000000000
      1978        15  DOPC      H3R            -9.8953005080      -10.6945897085       12.3610835854  MEMB      15              0.0000000000
      1979        15  DOPC      H3S           -11.1551786575       -9.5879463171       12.9983090516  MEMB      15              0.0000000000
      1980        15  DOPC      C24           -11.6747671628      -10.5924514764       11.1673372316  MEMB      15              0.0000000000
      1981        15  DOPC      H4R           -11.1762039014       -9.8519935224       10.5073244351  MEMB      15              0.0000000000
      1982        15  DOPC      H4S           -12.7105048407      -10.2317992034       11.3344179247  MEMB      15              0.0000000000
      1983        15  DOPC      C25           -11.7006316562      -11.9457259721       10.4426280289  MEMB      15              0.0000000000
      1984        15  DOPC      H5R           -12.4641292606      -12.6011246865       10.9187009962  MEMB      15              0.0000000000
      1985        15  DOPC      H5S           -10.7148110669      -12.4456362216       10.5542484231  MEMB      15              0.0000000000
      1986        15  DOPC      C26           -12.0150934653      -11.8283722823        8.9390270618  MEMB      15              0.0000000000
      1987        15  DOPC      H6R           -12.2017962918      -12.8468839750        8.5301696916  MEMB      15              0.0000000000
      1988        15  DOPC      H6S           -11.1278918050      -11.4185408495        8.4049558322  MEMB      15              0.0000000000
      1989        15  DOPC      C27           -13.2206692279      -10.9294437855        8.6131805472  MEMB      15              0.0000000000
      1990        15  DOPC      H7R           -13.4657286626      -11.0501920020        7.5350609465  MEMB      15              0.0000000000
      1991        15  DOPC      H7S           -12.9063411420       -9.8749529165        8.7369215052  MEMB      15              0.0000000000
      1992        15  DOPC      C28           -14.4799079086      -11.1925705283        9.4634214830  MEMB      15              0.0000000000
      1993        15  DOPC      H8R           -15.2829733622      -10.4756909283        9.1891261788  MEMB      15              0.0000000000
      1994        15  DOPC      H8S           -14.3008325581      -11.0257922205       10.5378419205  MEMB      15              0.0000000000
      1995        15  DOPC      C29           -14.9248111018      -12.6051886339        9.2929770757  MEMB      15              0.0000000000
      1996        15  DOPC      H9R           -14.6536161806      -13.2956564134       10.1069344716  MEMB      15              0.0000000000
      1997        15  DOPC      C210          -15.5762452602      -13.0588803305        8.2209156469  MEMB      15              0.0000000000
      1998        15  DOPC      H10R          -15.7524456733      -14.1325507558        8.1312917319  MEMB      15              0.0000000000
      1999        15  DOPC      C211          -15.9781793555      -12.2712959590        7.0171304536  MEMB      15              0.0000000000
      2000        15  DOPC      H11R          -15.7817304597      -11.1837462687        7.1473276136  MEMB      15              0.0000000000
      2001        15  DOPC      H11S          -17.0710342020      -12.3745611611        6.8345493365  MEMB      15              0.0000000000
      2002        15  DOPC      C212          -15.2072457524      -12.8182605822        5.8081686604  MEMB      15              0.0000000000
      2003        15  DOPC      H12R          -15.9341634477      -13.4248814601        5.2381719758  MEMB      15              0.0000000000
      2004        15  DOPC      H12S          -14.3791185915      -13.5176277383        6.0658752391  MEMB      15              0.0000000000
      2005        15  DOPC      C213          -14.6289456809      -11.6887116014        4.9578000999  MEMB      15              0.0000000000
      2006        15  DOPC      H13R          -13.5741435282      -11.4978051568        5.2700469717  MEMB      15              0.0000000000
      2007        15  DOPC      H13S          -15.2148304068      -10.7702196356        5.1750956883  MEMB      15              0.0000000000
      2008        15  DOPC      C214          -14.7139509622      -11.9340435246        3.4493860811  MEMB      15              0.0000000000
      2009        15  DOPC      H14R          -14.1193757009      -12.8471780766        3.2110496769  MEMB      15              0.0000000000
      2010        15  DOPC      H14S          -14.2265541521      -11.1008686863        2.9024626503  MEMB      15              0.0000000000
      2011        15  DOPC      C215          -16.1562991383      -12.1206832285        2.9255735634  MEMB      15              0.0000000000
      2012        15  DOPC      H15R          -16.6632375680      -12.9240435333        3.4935863212  MEMB      15              0.0000000000
      2013        15  DOPC      H15S          -16.0631404339      -12.5092197932        1.8988070571  MEMB      15              0.0000000000
      2014        15  DOPC      C216          -17.1036879937      -10.8965955127        2.8879373537  MEMB      15              0.0000000000
      2015        15  DOPC      H16R          -16.9441854445      -10.2350173500        3.7638257158  MEMB      15              0.0000000000
      2016        15  DOPC      H16S          -18.1444318182      -11.2933087935        2.9584632127  MEMB      15              0.0000000000
      2017        15  DOPC      C217          -17.0310882809      -10.1083320325        1.5675743822  MEMB      15              0.0000000000
      2018        15  DOPC      H17R          -16.8638670636      -10.8467876857        0.7633807526  MEMB      15              0.0000000000
      2019        15  DOPC      H17S          -16.1176952402       -9.4749382728        1.5823797357  MEMB      15              0.0000000000
      2020        15  DOPC      C218          -18.2645755277       -9.2570276448        1.2040341146  MEMB      15              0.0000000000
      2021        15  DOPC      H18R          -18.0074988036       -8.5414033775        0.3872924385  MEMB      15              0.0000000000
      2022        15  DOPC      H18S          -18.5877085867       -8.6694802277        2.0883744112  MEMB      15              0.0000000000
      2023        15  DOPC      H18T          -19.1403592502       -9.8534079491        0.8700877515  MEMB      15              0.0000000000
      2024        15  DOPC      C33           -14.0399596917       -6.8462760817       11.2584141366  MEMB      15              0.0000000000
      2025        15  DOPC      H3X           -13.4166697677       -5.9311908118       11.3117752683  MEMB      15              0.0000000000
      2026        15  DOPC      H3Y           -15.0567121804       -6.5198549830       10.9820271322  MEMB      15              0.0000000000
      2027        15  DOPC      C34           -13.4937746305       -7.7453324320       10.1565082060  MEMB      15              0.0000000000
      2028        15  DOPC      H4X           -14.2633736274       -8.5091621816        9.9219696324  MEMB      15              0.0000000000
      2029        15  DOPC      H4Y           -12.6070786254       -8.2684111054       10.5619631423  MEMB      15              0.0000000000
      2030        15  DOPC      C35           -13.0256778899       -7.0164181789        8.8965364736  MEMB      15              0.0000000000
      2031        15  DOPC      H5X           -12.2641826197       -7.6531304040        8.3876140698  MEMB      15              0.0000000000
      2032        15  DOPC      H5Y           -12.5224845139       -6.0665892963        9.1749878513  MEMB      15              0.0000000000
      2033        15  DOPC      C36           -14.1432755466       -6.7474153626        7.8909865998  MEMB      15              0.0000000000
      2034        15  DOPC      H6X           -14.9027670294       -6.0874446349        8.3515182614  MEMB      15              0.0000000000
      2035        15  DOPC      H6Y           -13.6732578981       -6.1804886197        7.0550465487  MEMB      15              0.0000000000
      2036        15  DOPC      C37           -14.7915309574       -8.0436101855        7.3626775349  MEMB      15              0.0000000000
      2037        15  DOPC      H7X           -13.9743418340       -8.7071534890        6.9972760750  MEMB      15              0.0000000000
      2038        15  DOPC      H7Y           -15.3226043926       -8.5786343323        8.1773876753  MEMB      15              0.0000000000
      2039        15  DOPC      C38           -15.8082951132       -7.8605820463        6.2329409149  MEMB      15              0.0000000000
      2040        15  DOPC      H8X           -16.7676221915       -7.4744626071        6.6211780940  MEMB      15              0.0000000000
      2041        15  DOPC      H8Y           -16.0420674676       -8.8533763953        5.7820278521  MEMB      15              0.0000000000
      2042        15  DOPC      C39           -15.2643490396       -6.9037422758        5.2226530041  MEMB      15              0.0000000000
      2043        15  DOPC      H9X           -15.6051341437       -5.8621715298        5.3194105194  MEMB      15              0.0000000000
      2044        15  DOPC      C310          -14.4128843909       -7.2255984389        4.2542280295  MEMB      15              0.0000000000
      2045        15  DOPC      H10X          -14.1673395938       -6.4577732003        3.5198667019  MEMB      15              0.0000000000
      2046        15  DOPC      C311          -13.8383597733       -8.5812227156        3.9882140631  MEMB      15              0.0000000000
      2047        15  DOPC      H11X          -14.3889025147       -9.0364586535        3.1386218732  MEMB      15              0.0000000000
      2048        15  DOPC      H11Y          -13.9514769610       -9.2399508291        4.8681493311  MEMB      15              0.0000000000
      2049        15  DOPC      C312          -12.3422326217       -8.5287555817        3.6601960183  MEMB      15              0.0000000000
      2050        15  DOPC      H12X          -11.9963121968       -9.5603502077        3.4161629081  MEMB      15              0.0000000000
      2051        15  DOPC      H12Y          -11.7760735819       -8.1918301147        4.5580560293  MEMB      15              0.0000000000
      2052        15  DOPC      C313          -12.0601757771       -7.6061739788        2.4736147111  MEMB      15              0.0000000000
      2053        15  DOPC      H13X          -12.6073311904       -7.9756454487        1.5849352061  MEMB      15              0.0000000000
      2054        15  DOPC      H13Y          -12.4187495003       -6.5779495429        2.6718614326  MEMB      15              0.0000000000
      2055        15  DOPC      C314          -10.5892278799       -7.4514079634        2.1424307851  MEMB      15              0.0000000000
      2056        15  DOPC      H14X          -10.1602065453       -6.7122567337        2.8594902159  MEMB      15              0.0000000000
      2057        15  DOPC      H14Y          -10.0635277935       -8.4047827727        2.3127887535  MEMB      15              0.0000000000
      2058        15  DOPC      C315          -10.4051597935       -6.9232898761        0.7180040870  MEMB      15              0.0000000000
      2059        15  DOPC      H15X           -9.5844930192       -6.1829692909        0.7520159790  MEMB      15              0.0000000000
      2060        15  DOPC      H15Y          -11.3311326304       -6.3891620201        0.4077551513  MEMB      15              0.0000000000
      2061        15  DOPC      C316          -10.1322480334       -7.9566946653       -0.3827946271  MEMB      15              0.0000000000
      2062        15  DOPC      H16X          -11.0413804394       -8.5753372375       -0.4937406728  MEMB      15              0.0000000000
      2063        15  DOPC      H16Y           -9.9875420121       -7.4046941499       -1.3410905231  MEMB      15              0.0000000000
      2064        15  DOPC      C317           -8.9041566542       -8.8450265106       -0.1853331508  MEMB      15              0.0000000000
      2065        15  DOPC      H17X           -8.5728195575       -9.2109463309       -1.1901783188  MEMB      15              0.0000000000
      2066        15  DOPC      H17Y           -8.0729692118       -8.2228703924        0.2100163357  MEMB      15              0.0000000000
      2067        15  DOPC      C318           -9.1253434839      -10.0855380357        0.6863907364  MEMB      15              0.0000000000
      2068        15  DOPC      H18X           -8.9012584776      -10.9817708840        0.0829238896  MEMB      15              0.0000000000
      2069        15  DOPC      H18Y           -8.4532904608      -10.0898338795        1.5719363378  MEMB      15              0.0000000000
      2070        15  DOPC      H18Z          -10.1785615171      -10.1593852678        1.0258342219  MEMB      15              0.0000000000
      2071        16  DOPC      N               5.7570211869      -17.5338946966       20.2787797722  MEMB      16              0.0000000000
      2072        16  DOPC      C12             5.8745668311      -17.4966250978       18.7599578704  MEMB      16              0.0000000000
      2073        16  DOPC      H12A            6.8872458407      -17.2561516009       18.4820377886  MEMB      16              0.0000000000
      2074        16  DOPC      H12B            5.2354184813      -16.6717668727       18.4226277526  MEMB      16              0.0000000000
      2075        16  DOPC      C13             5.4949603307      -18.9207835643       20.7900311812  MEMB      16              0.0000000000
      2076        16  DOPC      H13A            5.1115452793      -18.8779463973       21.8089681049  MEMB      16              0.0000000000
      2077        16  DOPC      H13B            4.7199667910      -19.3954529845       20.1773799489  MEMB      16              0.0000000000
      2078        16  DOPC      H13C            6.3706062989      -19.5438250209       20.7618022332  MEMB      16              0.0000000000
      2079        16  DOPC      C14             4.5588317921      -16.7093088369       20.6592449574  MEMB      16              0.0000000000
      2080        16  DOPC      H14A            4.4754975388      -16.5142014271       21.7170371705  MEMB      16              0.0000000000
      2081        16  DOPC      H14B            4.5011683610      -15.7869085229       20.0851097473  MEMB      16              0.0000000000
      2082        16  DOPC      H14C            3.6460727495      -17.2322161645       20.3609891628  MEMB      16              0.0000000000
      2083        16  DOPC      C15             6.8825657136      -16.8909875622       21.0028919715  MEMB      16              0.0000000000
      2084        16  DOPC      H15A            7.8306186840      -17.4059771733       20.9197547105  MEMB      16              0.0000000000
      2085        16  DOPC      H15B            6.6577919422      -16.8653106056       22.0754667637  MEMB      16              0.0000000000
      2086        16  DOPC      H15C            7.0558870711      -15.8646834156       20.7017139158  MEMB      16              0.0000000000
      2087        16  DOPC      C11             5.3858564652      -18.7308819676       17.9463449332  MEMB      16              0.0000000000
      2088        16  DOPC      H11A            5.4976442665      -18.5540045242       16.8483461424  MEMB      16              0.0000000000
      2089        16  DOPC      H11B            6.0448876806      -19.5945334743       18.1983145894  MEMB      16              0.0000000000
      2090        16  DOPC      P               2.7621684145      -18.1867350028       18.0317252650  MEMB      16              0.0000000000
      2091        16  DOPC      O13             3.0873615217      -16.8007281184       18.3871493914  MEMB      16              0.0000000000
      2092        16  DOPC      O14             1.5678299134      -18.8037028565       18.6356008035  MEMB      16              0.0000000000
      2093        16  DOPC      O12             4.0505370997      -19.0892899734       18.2680587036  MEMB      16              0.0000000000
      2094        16  DOPC      O11             2.5774290849      -18.1272135033       16.4929917991  MEMB      16              0.0000000000
      2095        16  DOPC      C1              1.7423567677      -17.0758833892       15.9554928636  MEMB      16              0.0000000000
      2096        16  DOPC      HA              1.7857342547      -16.1194812489       16.5397878863  MEMB      16              0.0000000000
      2097        16  DOPC      HB              0.6860960660      -17.4249391244       15.9475899871  MEMB      16              0.0000000000
      2098        16  DOPC      C2              2.0970108276      -16.7299156732       14.4825971088  MEMB      16              0.0000000000
      2099        16  DOPC      HS              1.1600150386      -16.5393718309       13.9127121175  MEMB      16              0.0000000000
      2100        16  DOPC      O21             2.8101274790      -17.8451923171       13.9116792271  MEMB      16              0.0000000000
      2101        16  DOPC      C21             2.0642197044      -18.9679575625       13.9558352630  MEMB      16              0.0000000000
      2102        16  DOPC      O22             0.8724938821      -19.0051776635       13.6986175973  MEMB      16              0.0000000000
      2103        16  DOPC      C22             2.9346895094      -20.1217340548       14.4730601430  MEMB      16              0.0000000000
      2104        16  DOPC      H2R             2.5396219106      -20.3758947706       15.4815149610  MEMB      16              0.0000000000
      2105        16  DOPC      H2S             3.9752018309      -19.7540091746       14.5900747280  MEMB      16              0.0000000000
      2106        16  DOPC      C3              2.9343020317      -15.4006807991       14.4225426622  MEMB      16              0.0000000000
      2107        16  DOPC      HX              3.3761503898      -15.2025954010       15.4297056222  MEMB      16              0.0000000000
      2108        16  DOPC      HY              2.2160104741      -14.5717678978       14.2514322261  MEMB      16              0.0000000000
      2109        16  DOPC      O31             3.8964541425      -15.3785613107       13.3451511497  MEMB      16              0.0000000000
      2110        16  DOPC      C31             5.1393357022      -15.5976840554       13.7308545971  MEMB      16              0.0000000000
      2111        16  DOPC      O32             5.5783127951      -15.5199042393       14.8626109702  MEMB      16              0.0000000000
      2112        16  DOPC      C32             5.9481690051      -16.0710825007       12.5516123259  MEMB      16              0.0000000000
      2113        16  DOPC      H2X             5.2882073322      -16.1449392861       11.6630110952  MEMB      16              0.0000000000
      2114        16  DOPC      H2Y             6.7600374807      -15.3503676356       12.3383062350  MEMB      16              0.0000000000
      2115        16  DOPC      C23             2.9134883255      -21.3977654801       13.6179135326  MEMB      16              0.0000000000
      2116        16  DOPC      H3R             2.0438840791      -22.0251853139       13.9145668264  MEMB      16              0.0000000000
      2117        16  DOPC      H3S             3.8249336477      -21.9931265890       13.8395809612  MEMB      16              0.0000000000
      2118        16  DOPC      C24             2.8284705546      -21.1506199607       12.1148032743  MEMB      16              0.0000000000
      2119        16  DOPC      H4R             1.7984100637      -20.8137775855       11.8740240448  MEMB      16              0.0000000000
      2120        16  DOPC      H4S             3.0109846490      -22.1142156410       11.6141324631  MEMB      16              0.0000000000
      2121        16  DOPC      C25             3.8585380238      -20.1906201017       11.5334711797  MEMB      16              0.0000000000
      2122        16  DOPC      H5R             4.8626244509      -20.6398879066       11.6970898707  MEMB      16              0.0000000000
      2123        16  DOPC      H5S             3.8503443741      -19.2097054787       12.0497850925  MEMB      16              0.0000000000
      2124        16  DOPC      C26             3.6491296496      -19.9497675995       10.0347127343  MEMB      16              0.0000000000
      2125        16  DOPC      H6R             3.8387267281      -20.8920575173        9.4765880326  MEMB      16              0.0000000000
      2126        16  DOPC      H6S             4.4251587179      -19.2255351838        9.7487792894  MEMB      16              0.0000000000
      2127        16  DOPC      C27             2.2982525375      -19.3499591618        9.6067931554  MEMB      16              0.0000000000
      2128        16  DOPC      H7R             1.4844397464      -20.0481478927        9.8988536441  MEMB      16              0.0000000000
      2129        16  DOPC      H7S             2.2958822338      -19.2867092341        8.4944563761  MEMB      16              0.0000000000
      2130        16  DOPC      C28             2.0051884252      -17.9424213011       10.1789387457  MEMB      16              0.0000000000
      2131        16  DOPC      H8R             1.8853446769      -18.0359363516       11.2820480244  MEMB      16              0.0000000000
      2132        16  DOPC      H8S             1.0201394151      -17.6123407565        9.7850835607  MEMB      16              0.0000000000
      2133        16  DOPC      C29             3.0885855984      -16.9300973257        9.8864957054  MEMB      16              0.0000000000
      2134        16  DOPC      H9R             4.0657415484      -17.2117764828       10.3080370211  MEMB      16              0.0000000000
      2135        16  DOPC      C210            3.0187502263      -15.7756159064        9.1941541637  MEMB      16              0.0000000000
      2136        16  DOPC      H10R            3.9277085062      -15.1566935063        9.1453031337  MEMB      16              0.0000000000
      2137        16  DOPC      C211            1.8230895380      -15.1618136587        8.5072228944  MEMB      16              0.0000000000
      2138        16  DOPC      H11R            1.4687227172      -14.3187391535        9.1416739105  MEMB      16              0.0000000000
      2139        16  DOPC      H11S            0.9720236603      -15.8681043916        8.4344307341  MEMB      16              0.0000000000
      2140        16  DOPC      C212            2.0996269689      -14.5450364092        7.1132621577  MEMB      16              0.0000000000
      2141        16  DOPC      H12R            3.1113985348      -14.0977727642        7.0778929131  MEMB      16              0.0000000000
      2142        16  DOPC      H12S            1.3696759522      -13.7191536122        6.9550182503  MEMB      16              0.0000000000
      2143        16  DOPC      C213            1.9862724635      -15.4759953555        5.9014717712  MEMB      16              0.0000000000
      2144        16  DOPC      H13R            1.0707612427      -16.0986313117        5.9712701357  MEMB      16              0.0000000000
      2145        16  DOPC      H13S            2.8521029018      -16.1522364838        5.9103647974  MEMB      16              0.0000000000
      2146        16  DOPC      C214            1.9969629044      -14.7050694421        4.5689964907  MEMB      16              0.0000000000
      2147        16  DOPC      H14R            1.2482717990      -13.8841483237        4.6221917594  MEMB      16              0.0000000000
      2148        16  DOPC      H14S            1.6926337804      -15.3933067573        3.7477021100  MEMB      16              0.0000000000
      2149        16  DOPC      C215            3.3767337332      -14.1187176883        4.2271995996  MEMB      16              0.0000000000
      2150        16  DOPC      H15R            4.0162290995      -14.9367385995        3.8286341646  MEMB      16              0.0000000000
      2151        16  DOPC      H15S            3.8665806591      -13.7421391575        5.1508513343  MEMB      16              0.0000000000
      2152        16  DOPC      C216            3.3264565441      -12.9472260407        3.2356770794  MEMB      16              0.0000000000
      2153        16  DOPC      H16R            2.6413017775      -12.1669522288        3.6422192026  MEMB      16              0.0000000000
      2154        16  DOPC      H16S            2.9105202695      -13.2947702716        2.2640841299  MEMB      16              0.0000000000
      2155        16  DOPC      C217            4.7087195622      -12.3174644112        3.0089544511  MEMB      16              0.0000000000
      2156        16  DOPC      H17R            5.1099694565      -11.9799539150        3.9936807578  MEMB      16              0.0000000000
      2157        16  DOPC      H17S            4.5932096090      -11.4090748455        2.3743469541  MEMB      16              0.0000000000
      2158        16  DOPC      C218            5.7166321297      -13.2642446017        2.3494908413  MEMB      16              0.0000000000
      2159        16  DOPC      H18R            5.9525197946      -14.1186879553        3.0210647171  MEMB      16              0.0000000000
      2160        16  DOPC      H18S            6.6583958371      -12.7204377944        2.1244034014  MEMB      16              0.0000000000
      2161        16  DOPC      H18T            5.3191253593      -13.6646839703        1.3939551704  MEMB      16              0.0000000000
      2162        16  DOPC      C33             6.4885780272      -17.4598639931       12.9061868929  MEMB      16              0.0000000000
      2163        16  DOPC      H3X             5.7036939019      -18.0815180130       13.4063392103  MEMB      16              0.0000000000
      2164        16  DOPC      H3Y             7.3556793614      -17.3816579657       13.6011938317  MEMB      16              0.0000000000
      2165        16  DOPC      C34             6.8700387200      -18.1886067897       11.6389104609  MEMB      16              0.0000000000
      2166        16  DOPC      H4X             7.6240757955      -17.5743070242       11.0950463477  MEMB      16              0.0000000000
      2167        16  DOPC      H4Y             5.9832115366      -18.2975076475       10.9781907802  MEMB      16              0.0000000000
      2168        16  DOPC      C35             7.4554124664      -19.5590934152       11.9298427660  MEMB      16              0.0000000000
      2169        16  DOPC      H5X             6.7509387417      -20.2516033931       12.4306257606  MEMB      16              0.0000000000
      2170        16  DOPC      H5Y             8.3109228033      -19.4060086692       12.6213784816  MEMB      16              0.0000000000
      2171        16  DOPC      C36             8.0472556742      -20.1340425619       10.6592887677  MEMB      16              0.0000000000
      2172        16  DOPC      H6X             8.7309387336      -19.3309109996       10.3375527699  MEMB      16              0.0000000000
      2173        16  DOPC      H6Y             8.6730220729      -21.0062250743       10.9245606744  MEMB      16              0.0000000000
      2174        16  DOPC      C37             7.0979414002      -20.5374658906        9.5160507515  MEMB      16              0.0000000000
      2175        16  DOPC      H7X             7.5729194436      -21.4098117067        9.0120615789  MEMB      16              0.0000000000
      2176        16  DOPC      H7Y             6.1439767582      -20.9202450940        9.9299253414  MEMB      16              0.0000000000
      2177        16  DOPC      C38             6.8280007077      -19.4915050511        8.3992576449  MEMB      16              0.0000000000
      2178        16  DOPC      H8X             5.8166827565      -19.0906168989        8.5155328314  MEMB      16              0.0000000000
      2179        16  DOPC      H8Y             6.8149072294      -20.0611796807        7.4410595138  MEMB      16              0.0000000000
      2180        16  DOPC      C39             7.7712106801      -18.3329995071        8.2551219764  MEMB      16              0.0000000000
      2181        16  DOPC      H9X             8.8010222001      -18.6580420378        8.2503336400  MEMB      16              0.0000000000
      2182        16  DOPC      C310            7.5402358701      -17.0262781582        8.0509647181  MEMB      16              0.0000000000
      2183        16  DOPC      H10X            8.4062931203      -16.3577203468        7.9306746509  MEMB      16              0.0000000000
      2184        16  DOPC      C311            6.2043955616      -16.3610033664        7.9046091182  MEMB      16              0.0000000000
      2185        16  DOPC      H11X            6.1616295486      -15.4495148323        8.5393966526  MEMB      16              0.0000000000
      2186        16  DOPC      H11Y            5.3791203908      -17.0262651481        8.2344864189  MEMB      16              0.0000000000
      2187        16  DOPC      C312            5.9566098764      -15.9710810551        6.4360780125  MEMB      16              0.0000000000
      2188        16  DOPC      H12X            6.7336709250      -15.2509104019        6.0949322229  MEMB      16              0.0000000000
      2189        16  DOPC      H12Y            4.9782393859      -15.4428086126        6.3856903782  MEMB      16              0.0000000000
      2190        16  DOPC      C313            5.9054952294      -17.1627648542        5.4525996685  MEMB      16              0.0000000000
      2191        16  DOPC      H13X            5.7289089361      -16.7327647011        4.4443504735  MEMB      16              0.0000000000
      2192        16  DOPC      H13Y            6.8923843565      -17.6755677865        5.4213137973  MEMB      16              0.0000000000
      2193        16  DOPC      C314            4.8130560634      -18.1903510328        5.8050094200  MEMB      16              0.0000000000
      2194        16  DOPC      H14X            5.1653661713      -18.8255202795        6.6332660971  MEMB      16              0.0000000000
      2195        16  DOPC      H14Y            3.9274544611      -17.6742182013        6.2066716040  MEMB      16              0.0000000000
      2196        16  DOPC      C315            4.3545179477      -19.1471490929        4.6974812515  MEMB      16              0.0000000000
      2197        16  DOPC      H15X            3.4485046383      -19.6819164080        5.0669930608  MEMB      16              0.0000000000
      2198        16  DOPC      H15Y            5.1401088505      -19.9163430609        4.5451878618  MEMB      16              0.0000000000
      2199        16  DOPC      C316            4.0175549865      -18.4927872764        3.3554761835  MEMB      16              0.0000000000
      2200        16  DOPC      H16X            3.2178528268      -17.7304004213        3.4908859997  MEMB      16              0.0000000000
      2201        16  DOPC      H16Y            4.9145316466      -17.9742436744        2.9496824731  MEMB      16              0.0000000000
      2202        16  DOPC      C317            3.5689573133      -19.5421289280        2.3359792559  MEMB      16              0.0000000000
      2203        16  DOPC      H17X            4.3574180862      -20.3251178457        2.2738564468  MEMB      16              0.0000000000
      2204        16  DOPC      H17Y            2.6364318155      -20.0333612276        2.6904101833  MEMB      16              0.0000000000
      2205        16  DOPC      C318            3.3467166015      -18.9658940292        0.9483043152  MEMB      16              0.0000000000
      2206        16  DOPC      H18X            2.7410204887      -18.0370707335        0.9946915960  MEMB      16              0.0000000000
      2207        16  DOPC      H18Y            4.3142116736      -18.7074255289        0.5106663454  MEMB      16              0.0000000000
      2208        16  DOPC      H18Z            2.8720099493      -19.7015315387        0.2662297945  MEMB      16              0.0000000000
      2209        17  DOPC      N              19.1596515087       -8.0885496334       18.4223573572  MEMB      17              0.0000000000
      2210        17  DOPC      C12            18.2676918696       -7.0275135122       17.7924342268  MEMB      17              0.0000000000
      2211        17  DOPC      H12A           18.4290148345       -6.9904035702       16.7287113473  MEMB      17              0.0000000000
      2212        17  DOPC      H12B           18.5572955956       -6.0614480994       18.2115239828  MEMB      17              0.0000000000
      2213        17  DOPC      C13            18.4266347110       -9.3819067898       18.4655792253  MEMB      17              0.0000000000
      2214        17  DOPC      H13A           18.2776913469       -9.7891334525       17.4713845678  MEMB      17              0.0000000000
      2215        17  DOPC      H13B           18.9543308335      -10.1234611105       19.0535743504  MEMB      17              0.0000000000
      2216        17  DOPC      H13C           17.4583548013       -9.2121180432       18.9396436166  MEMB      17              0.0000000000
      2217        17  DOPC      C14            19.3221024580       -7.7170679998       19.8440299034  MEMB      17              0.0000000000
      2218        17  DOPC      H14A           19.7830381279       -6.7435197226       19.9693834671  MEMB      17              0.0000000000
      2219        17  DOPC      H14B           18.3220420211       -7.6101547181       20.2829415679  MEMB      17              0.0000000000
      2220        17  DOPC      H14C           19.8450117392       -8.4391948368       20.4451571177  MEMB      17              0.0000000000
      2221        17  DOPC      C15            20.4786028636       -8.2585638912       17.7431206200  MEMB      17              0.0000000000
      2222        17  DOPC      H15A           20.9328260695       -9.1741152054       18.1122928078  MEMB      17              0.0000000000
      2223        17  DOPC      H15B           21.1532470411       -7.4322619477       17.9334309180  MEMB      17              0.0000000000
      2224        17  DOPC      H15C           20.3775257297       -8.3837257581       16.6706210244  MEMB      17              0.0000000000
      2225        17  DOPC      C11            16.7339496692       -7.1307063860       18.0615864392  MEMB      17              0.0000000000
      2226        17  DOPC      H11A           16.2266545323       -6.4176581734       17.3671602572  MEMB      17              0.0000000000
      2227        17  DOPC      H11B           16.3425695887       -8.1244787709       17.7530142282  MEMB      17              0.0000000000
      2228        17  DOPC      P              16.4240211278       -5.3675949091       19.9377077418  MEMB      17              0.0000000000
      2229        17  DOPC      O13            17.8212763870       -4.8920935042       19.7904605995  MEMB      17              0.0000000000
      2230        17  DOPC      O14            15.7818463959       -5.1853786411       21.2660194407  MEMB      17              0.0000000000
      2231        17  DOPC      O12            16.3974118589       -6.8846310576       19.4456365279  MEMB      17              0.0000000000
      2232        17  DOPC      O11            15.4768146654       -4.7549385017       18.7973933401  MEMB      17              0.0000000000
      2233        17  DOPC      C1             14.0881386120       -5.1737296856       18.8017559386  MEMB      17              0.0000000000
      2234        17  DOPC      HA             13.5359022342       -4.4016133645       19.3308954387  MEMB      17              0.0000000000
      2235        17  DOPC      HB             13.9241081438       -6.1567037021       19.3072543534  MEMB      17              0.0000000000
      2236        17  DOPC      C2             13.2949722202       -5.2451869576       17.4534856618  MEMB      17              0.0000000000
      2237        17  DOPC      HS             12.2118890423       -5.3470808246       17.7020761233  MEMB      17              0.0000000000
      2238        17  DOPC      O21            13.7457549987       -6.4282732940       16.7757552299  MEMB      17              0.0000000000
      2239        17  DOPC      C21            13.3439529255       -6.5324321373       15.5281148686  MEMB      17              0.0000000000
      2240        17  DOPC      O22            12.1972996464       -6.4544716508       15.1342644899  MEMB      17              0.0000000000
      2241        17  DOPC      C22            14.6221880031       -6.7374663047       14.7133583577  MEMB      17              0.0000000000
      2242        17  DOPC      H2R            14.9598452858       -7.7857152755       14.7889469083  MEMB      17              0.0000000000
      2243        17  DOPC      H2S            15.3985087865       -6.1063455473       15.1807872612  MEMB      17              0.0000000000
      2244        17  DOPC      C3             13.4450856123       -3.9694606494       16.5578452420  MEMB      17              0.0000000000
      2245        17  DOPC      HX             13.1087487046       -3.0898293580       17.1546525790  MEMB      17              0.0000000000
      2246        17  DOPC      HY             12.7105321363       -4.0238224167       15.7209413096  MEMB      17              0.0000000000
      2247        17  DOPC      O31            14.7930539088       -3.8594946734       16.0322164589  MEMB      17              0.0000000000
      2248        17  DOPC      C31            15.5467573013       -2.9405907245       16.6334884292  MEMB      17              0.0000000000
      2249        17  DOPC      O32            15.1296257597       -2.0420107199       17.3466135577  MEMB      17              0.0000000000
      2250        17  DOPC      C32            17.0564835377       -3.1042927081       16.3067705617  MEMB      17              0.0000000000
      2251        17  DOPC      H2X            17.4476864329       -2.1095361487       16.0215281519  MEMB      17              0.0000000000
      2252        17  DOPC      H2Y            17.5168736624       -3.3828029614       17.2795576934  MEMB      17              0.0000000000
      2253        17  DOPC      C23            14.4799284720       -6.2975822682       13.2565003389  MEMB      17              0.0000000000
      2254        17  DOPC      H3R            15.5000372137       -6.1208596837       12.8436606621  MEMB      17              0.0000000000
      2255        17  DOPC      H3S            13.9269869416       -5.3322470515       13.1838431485  MEMB      17              0.0000000000
      2256        17  DOPC      C24            13.7778850595       -7.3677152728       12.4297887397  MEMB      17              0.0000000000
      2257        17  DOPC      H4R            12.8015865895       -7.6292581580       12.8999673370  MEMB      17              0.0000000000
      2258        17  DOPC      H4S            14.3752215376       -8.3000778568       12.4026173330  MEMB      17              0.0000000000
      2259        17  DOPC      C25            13.4715569938       -6.8512961962       11.0392686285  MEMB      17              0.0000000000
      2260        17  DOPC      H5R            12.8176905294       -5.9566679740       11.1788458478  MEMB      17              0.0000000000
      2261        17  DOPC      H5S            12.8885949884       -7.6074305072       10.4677669167  MEMB      17              0.0000000000
      2262        17  DOPC      C26            14.6701712804       -6.4202680412       10.1966318612  MEMB      17              0.0000000000
      2263        17  DOPC      H6R            15.1731776904       -7.3029797285        9.7596730877  MEMB      17              0.0000000000
      2264        17  DOPC      H6S            15.4415307900       -5.8658713632       10.7621496798  MEMB      17              0.0000000000
      2265        17  DOPC      C27            14.1056455754       -5.5665357734        9.0769687160  MEMB      17              0.0000000000
      2266        17  DOPC      H7R            13.8180207117       -4.5797456621        9.4859593302  MEMB      17              0.0000000000
      2267        17  DOPC      H7S            13.1590352435       -6.0713173742        8.7777351281  MEMB      17              0.0000000000
      2268        17  DOPC      C28            14.9346874708       -5.4480984331        7.7997215453  MEMB      17              0.0000000000
      2269        17  DOPC      H8R            14.9235394035       -4.4057785131        7.4372040453  MEMB      17              0.0000000000
      2270        17  DOPC      H8S            14.3451249788       -6.0123008355        7.0395733505  MEMB      17              0.0000000000
      2271        17  DOPC      C29            16.3609630005       -5.9221800189        7.8591364314  MEMB      17              0.0000000000
      2272        17  DOPC      H9R            16.8492986421       -5.9426509341        8.8468136627  MEMB      17              0.0000000000
      2273        17  DOPC      C210           17.0438800108       -6.2630854331        6.7617367336  MEMB      17              0.0000000000
      2274        17  DOPC      H10R           18.0590316474       -6.6801821187        6.8503388001  MEMB      17              0.0000000000
      2275        17  DOPC      C211           16.4437888480       -6.2007046932        5.3841570263  MEMB      17              0.0000000000
      2276        17  DOPC      H11R           15.4003188148       -5.8127711160        5.3682203862  MEMB      17              0.0000000000
      2277        17  DOPC      H11S           16.3545995325       -7.2097851270        4.9899375133  MEMB      17              0.0000000000
      2278        17  DOPC      C212           17.1952942046       -5.3859768283        4.3302231686  MEMB      17              0.0000000000
      2279        17  DOPC      H12R           17.2971283308       -4.3352833437        4.6674611004  MEMB      17              0.0000000000
      2280        17  DOPC      H12S           16.5135974072       -5.4159629327        3.4514574439  MEMB      17              0.0000000000
      2281        17  DOPC      C213           18.5649904699       -5.9273309654        3.9260875342  MEMB      17              0.0000000000
      2282        17  DOPC      H13R           18.5335140432       -7.0291625775        3.9248877044  MEMB      17              0.0000000000
      2283        17  DOPC      H13S           19.3108442611       -5.6527696530        4.7039404838  MEMB      17              0.0000000000
      2284        17  DOPC      C214           19.0412023355       -5.4358097674        2.5422269932  MEMB      17              0.0000000000
      2285        17  DOPC      H14R           19.9720250847       -5.9969681477        2.3039416701  MEMB      17              0.0000000000
      2286        17  DOPC      H14S           19.2984889002       -4.3573344569        2.6273291275  MEMB      17              0.0000000000
      2287        17  DOPC      C215           18.0438863793       -5.5987221549        1.3712871459  MEMB      17              0.0000000000
      2288        17  DOPC      H15R           17.0969771493       -5.0571344634        1.5864939515  MEMB      17              0.0000000000
      2289        17  DOPC      H15S           17.7875959780       -6.6611355271        1.2194321015  MEMB      17              0.0000000000
      2290        17  DOPC      C216           18.5469829783       -5.0671914241        0.0210550414  MEMB      17              0.0000000000
      2291        17  DOPC      H16R           18.6242306221       -3.9704139386        0.1112690455  MEMB      17              0.0000000000
      2292        17  DOPC      H16S           17.7803285048       -5.2949759794       -0.7567678887  MEMB      17              0.0000000000
      2293        17  DOPC      C217           19.8978178688       -5.6268152976       -0.4325397992  MEMB      17              0.0000000000
      2294        17  DOPC      H17R           20.6673374409       -5.4676209266        0.3543813091  MEMB      17              0.0000000000
      2295        17  DOPC      H17S           20.2344558934       -5.0595801751       -1.3310100187  MEMB      17              0.0000000000
      2296        17  DOPC      C218           19.8228061808       -7.1054472223       -0.7956684164  MEMB      17              0.0000000000
      2297        17  DOPC      H18R           19.5194574179       -7.7247058508        0.0754483723  MEMB      17              0.0000000000
      2298        17  DOPC      H18S           20.8098898376       -7.4667708749       -1.1580648833  MEMB      17              0.0000000000
      2299        17  DOPC      H18T           19.0706166404       -7.2484423632       -1.5983090422  MEMB      17              0.0000000000
      2300        17  DOPC      C33            17.5448081585       -4.1182159884       15.2335142128  MEMB      17              0.0000000000
      2301        17  DOPC      H3X            17.0676747871       -5.1022726290       15.3668169821  MEMB      17              0.0000000000
      2302        17  DOPC      H3Y            18.6381023841       -4.2720118825       15.3985902971  MEMB      17              0.0000000000
      2303        17  DOPC      C34            17.3804935236       -3.6028427214       13.7969604660  MEMB      17              0.0000000000
      2304        17  DOPC      H4X            17.8175996378       -2.5802733207       13.7252003595  MEMB      17              0.0000000000
      2305        17  DOPC      H4Y            16.2932271100       -3.5240040674       13.5771756445  MEMB      17              0.0000000000
      2306        17  DOPC      C35            18.0761507446       -4.4716966592       12.7344609700  MEMB      17              0.0000000000
      2307        17  DOPC      H5X            17.6187166658       -5.4846440365       12.7334942848  MEMB      17              0.0000000000
      2308        17  DOPC      H5Y            19.1510543625       -4.5900290587       13.0056800549  MEMB      17              0.0000000000
      2309        17  DOPC      C36            18.0074145893       -3.8816224575       11.3065585262  MEMB      17              0.0000000000
      2310        17  DOPC      H6X            18.8049982466       -3.1141965299       11.1945832026  MEMB      17              0.0000000000
      2311        17  DOPC      H6Y            18.2134456891       -4.6993175245       10.5798024518  MEMB      17              0.0000000000
      2312        17  DOPC      C37            16.6617318757       -3.2138704960       10.9664992184  MEMB      17              0.0000000000
      2313        17  DOPC      H7X            15.8561797562       -3.9351366110       11.2152871340  MEMB      17              0.0000000000
      2314        17  DOPC      H7Y            16.5298973333       -2.3404613062       11.6401662960  MEMB      17              0.0000000000
      2315        17  DOPC      C38            16.5182438374       -2.7260420079        9.5021173105  MEMB      17              0.0000000000
      2316        17  DOPC      H8X            16.8911661484       -3.5214983507        8.8263595026  MEMB      17              0.0000000000
      2317        17  DOPC      H8Y            17.1677025674       -1.8379836294        9.3474179875  MEMB      17              0.0000000000
      2318        17  DOPC      C39            15.0726977893       -2.4089559852        9.1945484393  MEMB      17              0.0000000000
      2319        17  DOPC      H9X            14.3991621992       -2.6021503595       10.0429790945  MEMB      17              0.0000000000
      2320        17  DOPC      C310           14.5096004141       -1.9566001197        8.0594366632  MEMB      17              0.0000000000
      2321        17  DOPC      H10X           13.4180841829       -1.8230918245        8.0391825329  MEMB      17              0.0000000000
      2322        17  DOPC      C311           15.1945749564       -1.6364779253        6.7622839045  MEMB      17              0.0000000000
      2323        17  DOPC      H11X           15.8200451701       -2.4846234641        6.4149990173  MEMB      17              0.0000000000
      2324        17  DOPC      H11Y           15.8970787859       -0.7907357089        6.9400723913  MEMB      17              0.0000000000
      2325        17  DOPC      C312           14.2039361329       -1.1742001273        5.6628847959  MEMB      17              0.0000000000
      2326        17  DOPC      H12X           14.7513353344       -0.4233009722        5.0455353403  MEMB      17              0.0000000000
      2327        17  DOPC      H12Y           13.3275879774       -0.6536991579        6.1095452647  MEMB      17              0.0000000000
      2328        17  DOPC      C313           13.6922432002       -2.2105119825        4.6538908213  MEMB      17              0.0000000000
      2329        17  DOPC      H13X           12.9549592114       -2.8896571623        5.1290935640  MEMB      17              0.0000000000
      2330        17  DOPC      H13Y           13.1521427955       -1.6582653043        3.8497219933  MEMB      17              0.0000000000
      2331        17  DOPC      C314           14.8142856290       -3.0403877894        4.0188816822  MEMB      17              0.0000000000
      2332        17  DOPC      H14X           15.1720029617       -3.7405979417        4.7993102879  MEMB      17              0.0000000000
      2333        17  DOPC      H14Y           14.3937483577       -3.6714370872        3.2082812539  MEMB      17              0.0000000000
      2334        17  DOPC      C315           16.0172635479       -2.2243782502        3.4997444818  MEMB      17              0.0000000000
      2335        17  DOPC      H15X           16.8100602808       -2.9239627916        3.1502251614  MEMB      17              0.0000000000
      2336        17  DOPC      H15Y           16.4656632288       -1.6160551024        4.3134645360  MEMB      17              0.0000000000
      2337        17  DOPC      C316           15.6815460029       -1.3233772217        2.3178534499  MEMB      17              0.0000000000
      2338        17  DOPC      H16X           14.8657421982       -0.6126354144        2.5831637624  MEMB      17              0.0000000000
      2339        17  DOPC      H16Y           16.5781337566       -0.7198926895        2.0425880324  MEMB      17              0.0000000000
      2340        17  DOPC      C317           15.2619942458       -2.1644034905        1.1202477348  MEMB      17              0.0000000000
      2341        17  DOPC      H17X           16.0601130678       -2.9007495066        0.8701724442  MEMB      17              0.0000000000
      2342        17  DOPC      H17Y           14.3393265808       -2.7377454827        1.3650516092  MEMB      17              0.0000000000
      2343        17  DOPC      C318           14.9683415180       -1.2841728909       -0.0648796814  MEMB      17              0.0000000000
      2344        17  DOPC      H18X           14.1881319206       -0.5424942571        0.2217193723  MEMB      17              0.0000000000
      2345        17  DOPC      H18Y           15.8736102277       -0.7300723514       -0.3944213079  MEMB      17              0.0000000000
      2346        17  DOPC      H18Z           14.5939318918       -1.8960385149       -0.9099154699  MEMB      17              0.0000000000
      2347        18  DOPC      N             -11.9677179450       16.6549272810       19.8757871740  MEMB      18              0.0000000000
      2348        18  DOPC      C12           -11.6737713433       15.8321140617       18.6226087494  MEMB      18              0.0000000000
      2349        18  DOPC      H12A          -10.9325220091       16.3355293916       18.0206522731  MEMB      18              0.0000000000
      2350        18  DOPC      H12B          -12.5837013360       15.7868257663       18.0217867338  MEMB      18              0.0000000000
      2351        18  DOPC      C13           -10.7106303581       17.1531483259       20.5181566510  MEMB      18              0.0000000000
      2352        18  DOPC      H13A          -10.0640818122       16.3309965761       20.8203039450  MEMB      18              0.0000000000
      2353        18  DOPC      H13B          -10.1441107477       17.8183619465       19.8666553404  MEMB      18              0.0000000000
      2354        18  DOPC      H13C          -10.9600776447       17.7190079621       21.4116428182  MEMB      18              0.0000000000
      2355        18  DOPC      C14           -12.7388596799       15.8222657100       20.8393128068  MEMB      18              0.0000000000
      2356        18  DOPC      H14A          -13.6784993486       15.4589264804       20.4037037602  MEMB      18              0.0000000000
      2357        18  DOPC      H14B          -12.2182241393       14.8764090154       20.9997910003  MEMB      18              0.0000000000
      2358        18  DOPC      H14C          -12.9463197598       16.2876628395       21.7833341649  MEMB      18              0.0000000000
      2359        18  DOPC      C15           -12.8258412087       17.8388764314       19.5827772998  MEMB      18              0.0000000000
      2360        18  DOPC      H15A          -13.8109257039       17.5232887885       19.2495778048  MEMB      18              0.0000000000
      2361        18  DOPC      H15B          -12.3810121839       18.4649248860       18.8225903692  MEMB      18              0.0000000000
      2362        18  DOPC      H15C          -12.9410387482       18.4178807709       20.5004793174  MEMB      18              0.0000000000
      2363        18  DOPC      C11           -11.2650011437       14.3177490721       18.7404609375  MEMB      18              0.0000000000
      2364        18  DOPC      H11A          -11.2067064686       13.8907855437       17.7084659512  MEMB      18              0.0000000000
      2365        18  DOPC      H11B          -10.2441390565       14.2469340430       19.1369903457  MEMB      18              0.0000000000
      2366        18  DOPC      P             -13.6049235237       13.2343286173       18.9320355924  MEMB      18              0.0000000000
      2367        18  DOPC      O13           -14.5727517810       13.6034934450       19.9994276260  MEMB      18              0.0000000000
      2368        18  DOPC      O14           -13.6681278168       11.8987888514       18.3281432608  MEMB      18              0.0000000000
      2369        18  DOPC      O12           -12.1403381168       13.5068768749       19.5446697214  MEMB      18              0.0000000000
      2370        18  DOPC      O11           -13.7134148829       14.3451131009       17.7937257573  MEMB      18              0.0000000000
      2371        18  DOPC      C1            -14.5169570286       14.2043865553       16.6332348058  MEMB      18              0.0000000000
      2372        18  DOPC      HA            -15.3229138667       14.9566780713       16.7191159506  MEMB      18              0.0000000000
      2373        18  DOPC      HB            -15.0068019147       13.2053885520       16.5579018342  MEMB      18              0.0000000000
      2374        18  DOPC      C2            -13.7686233026       14.4923077428       15.2881790893  MEMB      18              0.0000000000
      2375        18  DOPC      HS            -14.5381420450       14.6089515949       14.4922736119  MEMB      18              0.0000000000
      2376        18  DOPC      O21           -12.8475764330       13.4489978472       14.9257310489  MEMB      18              0.0000000000
      2377        18  DOPC      C21           -13.4781611967       12.4746908035       14.2787006117  MEMB      18              0.0000000000
      2378        18  DOPC      O22           -14.6813114462       12.2816623657       14.2836959845  MEMB      18              0.0000000000
      2379        18  DOPC      C22           -12.5255220162       11.8718000286       13.2414603870  MEMB      18              0.0000000000
      2380        18  DOPC      H2R           -12.2383527840       10.8534547969       13.5704787055  MEMB      18              0.0000000000
      2381        18  DOPC      H2S           -11.6219158306       12.5171109480       13.2039660829  MEMB      18              0.0000000000
      2382        18  DOPC      C3            -12.9851924266       15.8285265401       15.2597732305  MEMB      18              0.0000000000
      2383        18  DOPC      HX            -12.1110464310       15.7450476808       15.9359754695  MEMB      18              0.0000000000
      2384        18  DOPC      HY            -13.6658235591       16.6236477996       15.6372671780  MEMB      18              0.0000000000
      2385        18  DOPC      O31           -12.5277538741       16.0722197815       13.9148239463  MEMB      18              0.0000000000
      2386        18  DOPC      C31           -12.8489851500       17.2187576573       13.3144004482  MEMB      18              0.0000000000
      2387        18  DOPC      O32           -13.3245801657       18.1890149913       13.8758714129  MEMB      18              0.0000000000
      2388        18  DOPC      C32           -12.2760183967       17.1839187830       11.8732331979  MEMB      18              0.0000000000
      2389        18  DOPC      H2X           -11.4612134431       17.9362358943       11.8645715602  MEMB      18              0.0000000000
      2390        18  DOPC      H2Y           -11.8029853337       16.1937893386       11.7034110282  MEMB      18              0.0000000000
      2391        18  DOPC      C23           -13.1940239817       11.8421680128       11.8360356515  MEMB      18              0.0000000000
      2392        18  DOPC      H3R           -13.4522705175       12.8844231107       11.5337493261  MEMB      18              0.0000000000
      2393        18  DOPC      H3S           -14.1559992614       11.2781415095       11.8873357571  MEMB      18              0.0000000000
      2394        18  DOPC      C24           -12.3285587336       11.2134305179       10.7233529385  MEMB      18              0.0000000000
      2395        18  DOPC      H4R           -12.8200297365       11.4019398287        9.7426815960  MEMB      18              0.0000000000
      2396        18  DOPC      H4S           -12.3253237968       10.1107997816       10.8745398953  MEMB      18              0.0000000000
      2397        18  DOPC      C25           -10.8686779919       11.7130742591       10.6563543788  MEMB      18              0.0000000000
      2398        18  DOPC      H5R           -10.2887167706       11.0598790865        9.9687484306  MEMB      18              0.0000000000
      2399        18  DOPC      H5S           -10.4072370253       11.5803210769       11.6632929052  MEMB      18              0.0000000000
      2400        18  DOPC      C26           -10.6992664060       13.1985186665       10.2452819625  MEMB      18              0.0000000000
      2401        18  DOPC      H6R            -9.6493844702       13.5175229623       10.3871001139  MEMB      18              0.0000000000
      2402        18  DOPC      H6S           -11.3092348143       13.8058777530       10.9543929521  MEMB      18              0.0000000000
      2403        18  DOPC      C27           -11.1389845890       13.5962351602        8.8144233030  MEMB      18              0.0000000000
      2404        18  DOPC      H7R           -11.0650516681       14.6997383586        8.6967783355  MEMB      18              0.0000000000
      2405        18  DOPC      H7S           -12.2151033267       13.3365372060        8.7722730707  MEMB      18              0.0000000000
      2406        18  DOPC      C28           -10.4456364268       12.9202187959        7.6063611897  MEMB      18              0.0000000000
      2407        18  DOPC      H8R           -11.2083255506       12.6992202945        6.8363100660  MEMB      18              0.0000000000
      2408        18  DOPC      H8S           -10.1202516213       11.9275691356        7.9464720844  MEMB      18              0.0000000000
      2409        18  DOPC      C29            -9.3347912403       13.6585591093        6.8960416460  MEMB      18              0.0000000000
      2410        18  DOPC      H9R            -8.3145751320       13.3730847663        7.1991357688  MEMB      18              0.0000000000
      2411        18  DOPC      C210           -9.4832790768       14.4824145723        5.8341570830  MEMB      18              0.0000000000
      2412        18  DOPC      H10R           -8.5894188330       14.9389106240        5.3837213047  MEMB      18              0.0000000000
      2413        18  DOPC      C211          -10.7634981202       14.8554282885        5.1262624059  MEMB      18              0.0000000000
      2414        18  DOPC      H11R          -10.6455116307       15.8502721128        4.6413165954  MEMB      18              0.0000000000
      2415        18  DOPC      H11S          -11.5836798028       14.9803488586        5.8671202656  MEMB      18              0.0000000000
      2416        18  DOPC      C212          -11.2338872677       13.8485606722        4.0443919136  MEMB      18              0.0000000000
      2417        18  DOPC      H12R          -12.0714646520       14.3028939566        3.4693689701  MEMB      18              0.0000000000
      2418        18  DOPC      H12S          -11.6397657301       12.9507138499        4.5651093046  MEMB      18              0.0000000000
      2419        18  DOPC      C213          -10.1665194619       13.3486305410        3.0534032515  MEMB      18              0.0000000000
      2420        18  DOPC      H13R          -10.6090052784       12.5729767735        2.3901947636  MEMB      18              0.0000000000
      2421        18  DOPC      H13S           -9.3745794931       12.8408260198        3.6418473926  MEMB      18              0.0000000000
      2422        18  DOPC      C214           -9.4766167819       14.4293862363        2.2105707909  MEMB      18              0.0000000000
      2423        18  DOPC      H14R           -8.5880828128       13.9790637707        1.7136913631  MEMB      18              0.0000000000
      2424        18  DOPC      H14S           -9.1024886927       15.2330341957        2.8807213137  MEMB      18              0.0000000000
      2425        18  DOPC      C215          -10.3091766818       15.0408217059        1.0799699812  MEMB      18              0.0000000000
      2426        18  DOPC      H15R           -9.6148580769       15.7367558340        0.5555600848  MEMB      18              0.0000000000
      2427        18  DOPC      H15S          -11.1512821619       15.6416951133        1.4804497978  MEMB      18              0.0000000000
      2428        18  DOPC      C216          -10.8195122372       14.0340267722        0.0392602195  MEMB      18              0.0000000000
      2429        18  DOPC      H16R          -11.8907352653       13.8160769327        0.2371622964  MEMB      18              0.0000000000
      2430        18  DOPC      H16S          -10.2576184032       13.0786770953        0.1378047179  MEMB      18              0.0000000000
      2431        18  DOPC      C217          -10.6252556076       14.5554711603       -1.3924706684  MEMB      18              0.0000000000
      2432        18  DOPC      H17R           -9.5401261939       14.7714410157       -1.5314383124  MEMB      18              0.0000000000
      2433        18  DOPC      H17S          -11.1694292428       15.5196336849       -1.5065002900  MEMB      18              0.0000000000
      2434        18  DOPC      C218          -11.0737960201       13.5852618706       -2.4886291597  MEMB      18              0.0000000000
      2435        18  DOPC      H18R          -12.1777314023       13.4988801723       -2.5107465655  MEMB      18              0.0000000000
      2436        18  DOPC      H18S          -10.6480177071       12.5738932366       -2.3168139325  MEMB      18              0.0000000000
      2437        18  DOPC      H18T          -10.7346044942       13.9456928123       -3.4841598322  MEMB      18              0.0000000000
      2438        18  DOPC      C33           -13.2391301092       17.4869695772       10.6805213198  MEMB      18              0.0000000000
      2439        18  DOPC      H3X           -12.6716273144       18.0792342532        9.9259259516  MEMB      18              0.0000000000
      2440        18  DOPC      H3Y           -14.0939363291       18.1115347621       10.9844299075  MEMB      18              0.0000000000
      2441        18  DOPC      C34           -13.7002846544       16.1948709556        9.9850411935  MEMB      18              0.0000000000
      2442        18  DOPC      H4X           -14.3358055838       15.6015386660       10.6789110651  MEMB      18              0.0000000000
      2443        18  DOPC      H4Y           -12.7745932366       15.6015343123        9.8083999043  MEMB      18              0.0000000000
      2444        18  DOPC      C35           -14.4002572543       16.3060105213        8.6069116234  MEMB      18              0.0000000000
      2445        18  DOPC      H5X           -13.9614871388       17.1293236125        8.0038576601  MEMB      18              0.0000000000
      2446        18  DOPC      H5Y           -15.4787200276       16.5166361175        8.7254252272  MEMB      18              0.0000000000
      2447        18  DOPC      C36           -14.1989491044       14.9665212291        7.8822756207  MEMB      18              0.0000000000
      2448        18  DOPC      H6X           -13.1276061490       14.9484003930        7.5787159091  MEMB      18              0.0000000000
      2449        18  DOPC      H6Y           -14.3610457414       14.1547147469        8.6294408546  MEMB      18              0.0000000000
      2450        18  DOPC      C37           -15.0343092482       14.6065944491        6.6417044617  MEMB      18              0.0000000000
      2451        18  DOPC      H7X           -16.0649343021       14.3108367476        6.9353656841  MEMB      18              0.0000000000
      2452        18  DOPC      H7Y           -15.1131265498       15.4883713746        5.9691962303  MEMB      18              0.0000000000
      2453        18  DOPC      C38           -14.3508810806       13.4382725328        5.8839356563  MEMB      18              0.0000000000
      2454        18  DOPC      H8X           -13.4017794005       13.8708203259        5.5044359090  MEMB      18              0.0000000000
      2455        18  DOPC      H8Y           -14.8896777431       13.1496463056        4.9695347253  MEMB      18              0.0000000000
      2456        18  DOPC      C39           -14.0006875299       12.2523422529        6.7599787493  MEMB      18              0.0000000000
      2457        18  DOPC      H9X           -13.0454985925       12.3947731205        7.2583745017  MEMB      18              0.0000000000
      2458        18  DOPC      C310          -14.6017386805       11.0801013906        7.0293099438  MEMB      18              0.0000000000
      2459        18  DOPC      H10X          -14.0903889408       10.4028136953        7.7293938495  MEMB      18              0.0000000000
      2460        18  DOPC      C311          -15.9002896366       10.5447608360        6.5069233732  MEMB      18              0.0000000000
      2461        18  DOPC      H11X          -16.6846326606       11.3265062922        6.5665842299  MEMB      18              0.0000000000
      2462        18  DOPC      H11Y          -16.2487629354        9.6972199881        7.1405917593  MEMB      18              0.0000000000
      2463        18  DOPC      C312          -15.7217017175       10.0279281608        5.0733953117  MEMB      18              0.0000000000
      2464        18  DOPC      H12X          -15.2326557628        9.0271771172        5.1009261397  MEMB      18              0.0000000000
      2465        18  DOPC      H12Y          -15.0508894327       10.7009016192        4.4916126635  MEMB      18              0.0000000000
      2466        18  DOPC      C313          -17.0330268899        9.9206466059        4.2930369524  MEMB      18              0.0000000000
      2467        18  DOPC      H13X          -16.7771304041        9.5599363659        3.2722269303  MEMB      18              0.0000000000
      2468        18  DOPC      H13Y          -17.6855333592        9.1428886865        4.7493545548  MEMB      18              0.0000000000
      2469        18  DOPC      C314          -17.8149380721       11.2392641469        4.1858008504  MEMB      18              0.0000000000
      2470        18  DOPC      H14X          -18.7116595574       11.0685436577        3.5516634560  MEMB      18              0.0000000000
      2471        18  DOPC      H14Y          -18.1859287846       11.6180157662        5.1483383857  MEMB      18              0.0000000000
      2472        18  DOPC      C315          -17.0609731491       12.4834288807        3.7468528803  MEMB      18              0.0000000000
      2473        18  DOPC      H15X          -16.1300218615       12.2269959798        3.2008225908  MEMB      18              0.0000000000
      2474        18  DOPC      H15Y          -16.8055503704       13.0655526583        4.6593346533  MEMB      18              0.0000000000
      2475        18  DOPC      C316          -18.0188878658       13.2971195552        2.8997286444  MEMB      18              0.0000000000
      2476        18  DOPC      H16X          -18.3945810383       12.6110843459        2.1166795835  MEMB      18              0.0000000000
      2477        18  DOPC      H16Y          -18.9223424716       13.5793149929        3.4714655195  MEMB      18              0.0000000000
      2478        18  DOPC      C317          -17.4001034303       14.4806713150        2.1879787887  MEMB      18              0.0000000000
      2479        18  DOPC      H17X          -17.5876540712       15.4272232473        2.7332346631  MEMB      18              0.0000000000
      2480        18  DOPC      H17Y          -16.2989550173       14.4031673496        2.1786310822  MEMB      18              0.0000000000
      2481        18  DOPC      C318          -17.9664482430       14.4864997402        0.7688528351  MEMB      18              0.0000000000
      2482        18  DOPC      H18X          -19.0735294266       14.3802671261        0.7790683133  MEMB      18              0.0000000000
      2483        18  DOPC      H18Y          -17.7083933763       15.4117986858        0.2323710469  MEMB      18              0.0000000000
      2484        18  DOPC      H18Z          -17.5605533292       13.6297651152        0.1966174146  MEMB      18              0.0000000000
      2485        19  DOPC      N              -2.6880294295       18.7488440308       19.2853166041  MEMB      19              0.0000000000
      2486        19  DOPC      C12            -3.9543729993       18.4760472977       20.0750717233  MEMB      19              0.0000000000
      2487        19  DOPC      H12A           -3.7056406736       18.2560275072       21.1001486667  MEMB      19              0.0000000000
      2488        19  DOPC      H12B           -4.4587444294       17.6215138533       19.6350125388  MEMB      19              0.0000000000
      2489        19  DOPC      C13            -2.0534092517       20.0306464470       19.7674436082  MEMB      19              0.0000000000
      2490        19  DOPC      H13A           -1.9380299878       20.0610330174       20.8455873388  MEMB      19              0.0000000000
      2491        19  DOPC      H13B           -1.0908301716       20.2112974313       19.2980779779  MEMB      19              0.0000000000
      2492        19  DOPC      H13C           -2.7167668410       20.8626795598       19.5088775610  MEMB      19              0.0000000000
      2493        19  DOPC      C14            -3.0141179605       18.9171231337       17.8355646255  MEMB      19              0.0000000000
      2494        19  DOPC      H14A           -3.6040856568       19.8322216399       17.7066361531  MEMB      19              0.0000000000
      2495        19  DOPC      H14B           -2.1342512173       18.9534788235       17.2013774420  MEMB      19              0.0000000000
      2496        19  DOPC      H14C           -3.6874640936       18.1358463086       17.4909220569  MEMB      19              0.0000000000
      2497        19  DOPC      C15            -1.7878056165       17.5842517480       19.4320027755  MEMB      19              0.0000000000
      2498        19  DOPC      H15A           -0.8525099812       17.7502033199       18.9061072383  MEMB      19              0.0000000000
      2499        19  DOPC      H15B           -2.2500605979       16.6930366926       19.0269564636  MEMB      19              0.0000000000
      2500        19  DOPC      H15C           -1.5754610280       17.4120376140       20.4780293790  MEMB      19              0.0000000000
      2501        19  DOPC      C11            -5.0226439970       19.5565920271       20.0851961123  MEMB      19              0.0000000000
      2502        19  DOPC      H11A           -5.7740320323       19.2759899760       20.8625879112  MEMB      19              0.0000000000
      2503        19  DOPC      H11B           -4.5996051657       20.5569426408       20.3498184990  MEMB      19              0.0000000000
      2504        19  DOPC      P              -6.7720624059       20.6154172805       18.6171697266  MEMB      19              0.0000000000
      2505        19  DOPC      O13            -6.1333244472       21.9167552383       18.3348725867  MEMB      19              0.0000000000
      2506        19  DOPC      O14            -7.6535844495       20.4959384453       19.7990399206  MEMB      19              0.0000000000
      2507        19  DOPC      O12            -5.6214107560       19.5427386211       18.7975829344  MEMB      19              0.0000000000
      2508        19  DOPC      O11            -7.5814329043       20.0440835968       17.3757447677  MEMB      19              0.0000000000
      2509        19  DOPC      C1             -8.2174547500       18.7575016584       17.4012404697  MEMB      19              0.0000000000
      2510        19  DOPC      HA             -9.2686952258       18.8785261755       17.7486688857  MEMB      19              0.0000000000
      2511        19  DOPC      HB             -7.7062749308       18.0541907303       18.0989035591  MEMB      19              0.0000000000
      2512        19  DOPC      C2             -8.2508030383       18.0805579922       15.9871365543  MEMB      19              0.0000000000
      2513        19  DOPC      HS             -8.3391666059       16.9773086442       16.1053866457  MEMB      19              0.0000000000
      2514        19  DOPC      O21            -7.1041475640       18.4027591333       15.1995059767  MEMB      19              0.0000000000
      2515        19  DOPC      C21            -5.8919511800       18.1876595027       15.6478004786  MEMB      19              0.0000000000
      2516        19  DOPC      O22            -5.5563952797       17.3262576565       16.4507902878  MEMB      19              0.0000000000
      2517        19  DOPC      C22            -4.9588215825       19.1806423006       14.9334440992  MEMB      19              0.0000000000
      2518        19  DOPC      H2R            -4.3523251236       19.6666232684       15.7204361355  MEMB      19              0.0000000000
      2519        19  DOPC      H2S            -5.5841705018       19.9698069607       14.4736411994  MEMB      19              0.0000000000
      2520        19  DOPC      C3             -9.4826658887       18.5624831796       15.1579602024  MEMB      19              0.0000000000
      2521        19  DOPC      HX            -10.3883112716       18.0337621965       15.5256738041  MEMB      19              0.0000000000
      2522        19  DOPC      HY             -9.3440283513       18.2460068274       14.0932899531  MEMB      19              0.0000000000
      2523        19  DOPC      O31            -9.6968515760       19.9883050167       15.2949716532  MEMB      19              0.0000000000
      2524        19  DOPC      C31            -8.9458843714       20.7434606498       14.4815542458  MEMB      19              0.0000000000
      2525        19  DOPC      O32            -8.3333037439       20.3402516658       13.5148321076  MEMB      19              0.0000000000
      2526        19  DOPC      C32            -9.1330634110       22.2281941511       14.8126128457  MEMB      19              0.0000000000
      2527        19  DOPC      H2X            -9.0635830374       22.7777788058       13.8513673323  MEMB      19              0.0000000000
      2528        19  DOPC      H2Y           -10.1580182605       22.3597295256       15.2140386475  MEMB      19              0.0000000000
      2529        19  DOPC      C23            -4.0174191513       18.5891398085       13.8557907142  MEMB      19              0.0000000000
      2530        19  DOPC      H3R            -3.3471864420       17.8501694717       14.3426440696  MEMB      19              0.0000000000
      2531        19  DOPC      H3S            -3.3815335216       19.4218506392       13.4703913309  MEMB      19              0.0000000000
      2532        19  DOPC      C24            -4.7082402022       17.9113515409       12.6599059708  MEMB      19              0.0000000000
      2533        19  DOPC      H4R            -5.4472702115       17.1713594470       13.0363034435  MEMB      19              0.0000000000
      2534        19  DOPC      H4S            -3.9386879798       17.3398024371       12.0889735843  MEMB      19              0.0000000000
      2535        19  DOPC      C25            -5.3966918476       18.8691087688       11.6700035001  MEMB      19              0.0000000000
      2536        19  DOPC      H5R            -4.6461386763       19.5925483057       11.2801038553  MEMB      19              0.0000000000
      2537        19  DOPC      H5S            -6.1905828684       19.4470373486       12.1954241629  MEMB      19              0.0000000000
      2538        19  DOPC      C26            -6.0236138359       18.1121064010       10.4861827167  MEMB      19              0.0000000000
      2539        19  DOPC      H6R            -6.9200605252       17.5616096714       10.8429505452  MEMB      19              0.0000000000
      2540        19  DOPC      H6S            -5.2935244580       17.3452772178       10.1424685970  MEMB      19              0.0000000000
      2541        19  DOPC      C27            -6.3922119651       18.9745457193        9.2585471779  MEMB      19              0.0000000000
      2542        19  DOPC      H7R            -6.9267458709       18.3333045169        8.5224685244  MEMB      19              0.0000000000
      2543        19  DOPC      H7S            -5.4499174291       19.2997810919        8.7730746275  MEMB      19              0.0000000000
      2544        19  DOPC      C28            -7.2149561081       20.2512617272        9.5321026553  MEMB      19              0.0000000000
      2545        19  DOPC      H8R            -7.2796733572       20.8109450864        8.5711782269  MEMB      19              0.0000000000
      2546        19  DOPC      H8S            -6.6452450659       20.9070393317       10.2282365948  MEMB      19              0.0000000000
      2547        19  DOPC      C29            -8.5855404557       19.9548937642       10.0902499401  MEMB      19              0.0000000000
      2548        19  DOPC      H9R            -8.5772336550       19.5308481187       11.1079470838  MEMB      19              0.0000000000
      2549        19  DOPC      C210           -9.7650255060       20.2193353827        9.4922323252  MEMB      19              0.0000000000
      2550        19  DOPC      H10R          -10.6985402240       19.9754140525       10.0233639719  MEMB      19              0.0000000000
      2551        19  DOPC      C211           -9.9261028799       20.8730370187        8.1371935338  MEMB      19              0.0000000000
      2552        19  DOPC      H11R           -9.3011862205       21.7904703011        8.1249025920  MEMB      19              0.0000000000
      2553        19  DOPC      H11S          -10.9722751788       21.2241214342        7.9872356563  MEMB      19              0.0000000000
      2554        19  DOPC      C212           -9.4886384687       20.0516193185        6.9011743314  MEMB      19              0.0000000000
      2555        19  DOPC      H12R          -10.3779364049       19.5308340468        6.4876788980  MEMB      19              0.0000000000
      2556        19  DOPC      H12S           -8.7439188654       19.2788624261        7.1932112048  MEMB      19              0.0000000000
      2557        19  DOPC      C213           -8.8377907061       20.9482076931        5.8285247783  MEMB      19              0.0000000000
      2558        19  DOPC      H13R           -7.9312321670       21.4129335034        6.2823801725  MEMB      19              0.0000000000
      2559        19  DOPC      H13S           -9.5405284206       21.7710613034        5.5753986932  MEMB      19              0.0000000000
      2560        19  DOPC      C214           -8.4147476102       20.2373283870        4.5248805706  MEMB      19              0.0000000000
      2561        19  DOPC      H14R           -7.7377081663       19.3928629003        4.7743888896  MEMB      19              0.0000000000
      2562        19  DOPC      H14S           -7.8334204333       20.9629827080        3.9089943111  MEMB      19              0.0000000000
      2563        19  DOPC      C215           -9.6087528103       19.7533270610        3.6838736698  MEMB      19              0.0000000000
      2564        19  DOPC      H15R          -10.2135255268       20.6486484578        3.4068277900  MEMB      19              0.0000000000
      2565        19  DOPC      H15S          -10.2539253325       19.0941019987        4.3038747518  MEMB      19              0.0000000000
      2566        19  DOPC      C216           -9.2458476684       18.9962068581        2.3890500745  MEMB      19              0.0000000000
      2567        19  DOPC      H16R           -8.6962376236       18.0625012109        2.6396348341  MEMB      19              0.0000000000
      2568        19  DOPC      H16S           -8.5722610470       19.6279868372        1.7699598150  MEMB      19              0.0000000000
      2569        19  DOPC      C217          -10.5122522868       18.6406718696        1.5835673837  MEMB      19              0.0000000000
      2570        19  DOPC      H17R          -11.2653575373       19.4402209387        1.7695044834  MEMB      19              0.0000000000
      2571        19  DOPC      H17S          -10.9379827863       17.7032947040        2.0035664217  MEMB      19              0.0000000000
      2572        19  DOPC      C218          -10.3533496496       18.4966281824        0.0616999251  MEMB      19              0.0000000000
      2573        19  DOPC      H18R          -11.3394306752       18.2446800286       -0.3894055650  MEMB      19              0.0000000000
      2574        19  DOPC      H18S           -9.6297696078       17.7003453741       -0.2050030027  MEMB      19              0.0000000000
      2575        19  DOPC      H18T          -10.0016287058       19.4403602016       -0.4042670163  MEMB      19              0.0000000000
      2576        19  DOPC      C33            -8.1050212179       22.8075482400       15.8195851183  MEMB      19              0.0000000000
      2577        19  DOPC      H3X            -8.2181919273       22.3007822732       16.7986802302  MEMB      19              0.0000000000
      2578        19  DOPC      H3Y            -8.3464534436       23.8770313254       16.0073286475  MEMB      19              0.0000000000
      2579        19  DOPC      C34            -6.6199282581       22.7574731327       15.4004695533  MEMB      19              0.0000000000
      2580        19  DOPC      H4X            -6.2804879640       21.7060229878       15.3620492628  MEMB      19              0.0000000000
      2581        19  DOPC      H4Y            -6.0236899400       23.2600869142       16.2007532761  MEMB      19              0.0000000000
      2582        19  DOPC      C35            -6.3501260966       23.4609371659       14.0709959348  MEMB      19              0.0000000000
      2583        19  DOPC      H5X            -6.8015547032       24.4703961412       14.1930937710  MEMB      19              0.0000000000
      2584        19  DOPC      H5Y            -6.8929725669       22.9441166354       13.2562786388  MEMB      19              0.0000000000
      2585        19  DOPC      C36            -4.8760027350       23.6445943593       13.6515452467  MEMB      19              0.0000000000
      2586        19  DOPC      H6X            -4.8638012339       24.4714212075       12.9022115334  MEMB      19              0.0000000000
      2587        19  DOPC      H6Y            -4.2721404017       23.9844839583       14.5210830285  MEMB      19              0.0000000000
      2588        19  DOPC      C37            -4.2483823862       22.4178779628       12.9628871347  MEMB      19              0.0000000000
      2589        19  DOPC      H7X            -4.1107807400       21.6229347265       13.7251544740  MEMB      19              0.0000000000
      2590        19  DOPC      H7Y            -4.9781548353       22.0456997725       12.2066170787  MEMB      19              0.0000000000
      2591        19  DOPC      C38            -2.9070054663       22.7468066939       12.2620020199  MEMB      19              0.0000000000
      2592        19  DOPC      H8X            -2.1447558265       22.9245638457       13.0565880317  MEMB      19              0.0000000000
      2593        19  DOPC      H8Y            -3.0223936436       23.7104991586       11.7206856424  MEMB      19              0.0000000000
      2594        19  DOPC      C39            -2.4267402556       21.6575977983       11.3292714112  MEMB      19              0.0000000000
      2595        19  DOPC      H9X            -2.1714340176       20.7194809639       11.8366120799  MEMB      19              0.0000000000
      2596        19  DOPC      C310           -2.2979068376       21.6860567332        9.9875628883  MEMB      19              0.0000000000
      2597        19  DOPC      H10X           -1.8582743022       20.8047059716        9.4976154715  MEMB      19              0.0000000000
      2598        19  DOPC      C311           -2.5946341964       22.8131985095        9.0289837587  MEMB      19              0.0000000000
      2599        19  DOPC      H11X           -1.7662290764       22.8733757557        8.2893534754  MEMB      19              0.0000000000
      2600        19  DOPC      H11Y           -2.6240217451       23.7974825887        9.5464674077  MEMB      19              0.0000000000
      2601        19  DOPC      C312           -3.9177160403       22.6425761028        8.2483212419  MEMB      19              0.0000000000
      2602        19  DOPC      H12X           -4.0399468082       23.5110158117        7.5625064825  MEMB      19              0.0000000000
      2603        19  DOPC      H12Y           -4.7692239096       22.6691962159        8.9644774624  MEMB      19              0.0000000000
      2604        19  DOPC      C313           -4.0310687493       21.3484444164        7.4236158588  MEMB      19              0.0000000000
      2605        19  DOPC      H13X           -3.9591388835       20.4801251464        8.1108059378  MEMB      19              0.0000000000
      2606        19  DOPC      H13Y           -5.0396102572       21.3042211936        6.9544680429  MEMB      19              0.0000000000
      2607        19  DOPC      C314           -2.9546927570       21.1829188735        6.3442756576  MEMB      19              0.0000000000
      2608        19  DOPC      H14X           -1.9517707411       21.2599530635        6.8147341030  MEMB      19              0.0000000000
      2609        19  DOPC      H14Y           -3.0288874575       20.1533434927        5.9289877616  MEMB      19              0.0000000000
      2610        19  DOPC      C315           -3.1019512909       22.1802377306        5.1882607044  MEMB      19              0.0000000000
      2611        19  DOPC      H15X           -2.1707480600       22.2269529621        4.5825422572  MEMB      19              0.0000000000
      2612        19  DOPC      H15Y           -3.2458524577       23.2042294656        5.5876855391  MEMB      19              0.0000000000
      2613        19  DOPC      C316           -4.2378715407       21.7497988925        4.2501609724  MEMB      19              0.0000000000
      2614        19  DOPC      H16X           -5.1248552248       21.4446151791        4.8467588960  MEMB      19              0.0000000000
      2615        19  DOPC      H16Y           -4.5565120243       22.6103652606        3.6312585080  MEMB      19              0.0000000000
      2616        19  DOPC      C317           -3.7743275687       20.5716696858        3.3738830080  MEMB      19              0.0000000000
      2617        19  DOPC      H17X           -2.6757436282       20.6553832801        3.2580845636  MEMB      19              0.0000000000
      2618        19  DOPC      H17Y           -3.9580033044       19.6242353171        3.9287752446  MEMB      19              0.0000000000
      2619        19  DOPC      C318           -4.3616836012       20.4697652194        1.9667183209  MEMB      19              0.0000000000
      2620        19  DOPC      H18X           -3.9730317933       19.5553935065        1.4684967832  MEMB      19              0.0000000000
      2621        19  DOPC      H18Y           -5.4699462564       20.4261855001        2.0032815543  MEMB      19              0.0000000000
      2622        19  DOPC      H18Z           -4.0516738252       21.3244044143        1.3340447155  MEMB      19              0.0000000000
      2623        20  DOPC      N             -22.7750595550        1.1052874975       19.6137900781  MEMB      20              0.0000000000
      2624        20  DOPC      C12           -21.9648678209        2.0267303172       18.6855419218  MEMB      20              0.0000000000
      2625        20  DOPC      H12A          -22.5064504122        2.9565850481       18.5743878022  MEMB      20              0.0000000000
      2626        20  DOPC      H12B          -21.8991422409        1.5568724698       17.7118060608  MEMB      20              0.0000000000
      2627        20  DOPC      C13           -22.0213761064       -0.1906688211       19.7102826712  MEMB      20              0.0000000000
      2628        20  DOPC      H13A          -20.9979405015        0.0402214085       20.0182109363  MEMB      20              0.0000000000
      2629        20  DOPC      H13B          -22.4496021141       -0.8631152560       20.4330468510  MEMB      20              0.0000000000
      2630        20  DOPC      H13C          -21.9480680896       -0.6981931973       18.7592146884  MEMB      20              0.0000000000
      2631        20  DOPC      C14           -24.1537467339        0.8003183155       19.1160049245  MEMB      20              0.0000000000
      2632        20  DOPC      H14A          -24.7323973209        1.6900218646       18.9102119890  MEMB      20              0.0000000000
      2633        20  DOPC      H14B          -24.1300565396        0.1848494634       18.2244160707  MEMB      20              0.0000000000
      2634        20  DOPC      H14C          -24.7294569593        0.2384434226       19.8603542023  MEMB      20              0.0000000000
      2635        20  DOPC      C15           -22.9025422002        1.6874091517       20.9892449191  MEMB      20              0.0000000000
      2636        20  DOPC      H15A          -23.2743636636        0.9238722479       21.6773025408  MEMB      20              0.0000000000
      2637        20  DOPC      H15B          -23.6277152864        2.4931549805       21.0304939545  MEMB      20              0.0000000000
      2638        20  DOPC      H15C          -21.9239483449        2.0076282742       21.3508095001  MEMB      20              0.0000000000
      2639        20  DOPC      C11           -20.4796096720        2.4503880180       19.0255655638  MEMB      20              0.0000000000
      2640        20  DOPC      H11A          -20.0462571311        2.8093790017       18.0614890665  MEMB      20              0.0000000000
      2641        20  DOPC      H11B          -20.5230322761        3.3298745037       19.7064953444  MEMB      20              0.0000000000
      2642        20  DOPC      P             -18.1266440201        1.1483770677       19.2410740392  MEMB      20              0.0000000000
      2643        20  DOPC      O13           -17.9143318499       -0.3178179784       19.3512951773  MEMB      20              0.0000000000
      2644        20  DOPC      O14           -17.2181635535        2.0302721938       20.0153503691  MEMB      20              0.0000000000
      2645        20  DOPC      O12           -19.6629872203        1.4350817355       19.6102023810  MEMB      20              0.0000000000
      2646        20  DOPC      O11           -17.9726519903        1.5790815990       17.6872269460  MEMB      20              0.0000000000
      2647        20  DOPC      C1            -16.9098182635        2.5056700731       17.3576389184  MEMB      20              0.0000000000
      2648        20  DOPC      HA            -15.9440074562        2.1664090387       17.8074460507  MEMB      20              0.0000000000
      2649        20  DOPC      HB            -17.1722213269        3.5026937359       17.7715959573  MEMB      20              0.0000000000
      2650        20  DOPC      C2            -16.5831019056        2.7874956150       15.8341240312  MEMB      20              0.0000000000
      2651        20  DOPC      HS            -15.6527160861        3.4045824751       15.8290711039  MEMB      20              0.0000000000
      2652        20  DOPC      O21           -17.6762858759        3.5237972056       15.2314981901  MEMB      20              0.0000000000
      2653        20  DOPC      C21           -17.3636684060        4.2325744406       14.1489268052  MEMB      20              0.0000000000
      2654        20  DOPC      O22           -16.2705421913        4.2744018023       13.6102566905  MEMB      20              0.0000000000
      2655        20  DOPC      C22           -18.5713965803        5.1132728322       13.8134535750  MEMB      20              0.0000000000
      2656        20  DOPC      H2R           -18.4460553653        6.0106385225       14.4565854625  MEMB      20              0.0000000000
      2657        20  DOPC      H2S           -19.4992209388        4.5850417662       14.1177384934  MEMB      20              0.0000000000
      2658        20  DOPC      C3            -16.2839497303        1.4933258380       15.0167598505  MEMB      20              0.0000000000
      2659        20  DOPC      HX            -15.5607356404        0.8725719736       15.5971135345  MEMB      20              0.0000000000
      2660        20  DOPC      HY            -15.8010819893        1.7742027355       14.0486472594  MEMB      20              0.0000000000
      2661        20  DOPC      O31           -17.4959988588        0.7637221388       14.8083863332  MEMB      20              0.0000000000
      2662        20  DOPC      C31           -17.4543474222       -0.2178273872       13.9379608565  MEMB      20              0.0000000000
      2663        20  DOPC      O32           -16.4833342185       -0.5401217454       13.2702379486  MEMB      20              0.0000000000
      2664        20  DOPC      C32           -18.8038902032       -0.9227411412       14.0112400398  MEMB      20              0.0000000000
      2665        20  DOPC      H2X           -18.6581633453       -1.9740429273       13.6973115228  MEMB      20              0.0000000000
      2666        20  DOPC      H2Y           -19.1471759074       -0.9276411830       15.0676989984  MEMB      20              0.0000000000
      2667        20  DOPC      C23           -18.7016248813        5.6024581394       12.3498699850  MEMB      20              0.0000000000
      2668        20  DOPC      H3R           -17.7072170473        5.8515092136       11.9181746188  MEMB      20              0.0000000000
      2669        20  DOPC      H3S           -19.2975687279        6.5471453382       12.3694303888  MEMB      20              0.0000000000
      2670        20  DOPC      C24           -19.4511518195        4.6199438230       11.4400322726  MEMB      20              0.0000000000
      2671        20  DOPC      H4R           -20.3590748509        4.2577506587       11.9681164994  MEMB      20              0.0000000000
      2672        20  DOPC      H4S           -18.8000281577        3.7433578924       11.2313162885  MEMB      20              0.0000000000
      2673        20  DOPC      C25           -19.9244347847        5.2738419740       10.1327322714  MEMB      20              0.0000000000
      2674        20  DOPC      H5R           -19.1720756147        6.0274324127        9.8086855200  MEMB      20              0.0000000000
      2675        20  DOPC      H5S           -20.8833041608        5.8098208226       10.3203278524  MEMB      20              0.0000000000
      2676        20  DOPC      C26           -20.1066065056        4.2882496233        8.9770836180  MEMB      20              0.0000000000
      2677        20  DOPC      H6R           -20.7577022515        4.7559537205        8.2032354100  MEMB      20              0.0000000000
      2678        20  DOPC      H6S           -20.6306489795        3.3735069117        9.3323563965  MEMB      20              0.0000000000
      2679        20  DOPC      C27           -18.7578984460        3.9136995999        8.3458696555  MEMB      20              0.0000000000
      2680        20  DOPC      H7R           -18.0765275714        3.5562725828        9.1511416981  MEMB      20              0.0000000000
      2681        20  DOPC      H7S           -18.2853477680        4.8177756025        7.8993969083  MEMB      20              0.0000000000
      2682        20  DOPC      C28           -18.8853214031        2.7831337790        7.3152178698  MEMB      20              0.0000000000
      2683        20  DOPC      H8R           -19.3631410369        1.9301895961        7.8299104272  MEMB      20              0.0000000000
      2684        20  DOPC      H8S           -17.8921689373        2.4179466843        7.0185718739  MEMB      20              0.0000000000
      2685        20  DOPC      C29           -19.6530897039        3.1902942627        6.0932189253  MEMB      20              0.0000000000
      2686        20  DOPC      H9R           -20.3050099383        4.0625430767        6.2287723070  MEMB      20              0.0000000000
      2687        20  DOPC      C210          -19.5921709014        2.6049856572        4.8866719752  MEMB      20              0.0000000000
      2688        20  DOPC      H10R          -20.2370221090        3.0013155061        4.0900497642  MEMB      20              0.0000000000
      2689        20  DOPC      C211          -18.7476896727        1.4142507024        4.4958921350  MEMB      20              0.0000000000
      2690        20  DOPC      H11R          -19.2384918561        0.8303453333        3.6856869488  MEMB      20              0.0000000000
      2691        20  DOPC      H11S          -18.6066312876        0.7148355348        5.3509232269  MEMB      20              0.0000000000
      2692        20  DOPC      C212          -17.3744031894        1.8711376158        3.9851405969  MEMB      20              0.0000000000
      2693        20  DOPC      H12R          -16.8813606268        2.4332377158        4.7973263543  MEMB      20              0.0000000000
      2694        20  DOPC      H12S          -17.5007019818        2.5704479566        3.1306677989  MEMB      20              0.0000000000
      2695        20  DOPC      C213          -16.4842122625        0.7075390794        3.5334135654  MEMB      20              0.0000000000
      2696        20  DOPC      H13R          -16.9649101312        0.2737129529        2.6464969663  MEMB      20              0.0000000000
      2697        20  DOPC      H13S          -16.4556133309       -0.0753208968        4.3229343770  MEMB      20              0.0000000000
      2698        20  DOPC      C214          -15.0530570324        1.1071736559        3.1369220396  MEMB      20              0.0000000000
      2699        20  DOPC      H14R          -14.3851965809        0.2237570057        3.2445316028  MEMB      20              0.0000000000
      2700        20  DOPC      H14S          -14.6847599273        1.8893457597        3.8217282924  MEMB      20              0.0000000000
      2701        20  DOPC      C215          -14.9254556714        1.6078532771        1.7005530536  MEMB      20              0.0000000000
      2702        20  DOPC      H15R          -14.0985415056        2.3428867067        1.6008521991  MEMB      20              0.0000000000
      2703        20  DOPC      H15S          -15.8660692363        2.1146697906        1.4372871869  MEMB      20              0.0000000000
      2704        20  DOPC      C216          -14.7228817594        0.4195405852        0.7746582643  MEMB      20              0.0000000000
      2705        20  DOPC      H16R          -15.5876569249       -0.2630871249        0.9373111835  MEMB      20              0.0000000000
      2706        20  DOPC      H16S          -13.8083119417       -0.1398523776        1.0688795487  MEMB      20              0.0000000000
      2707        20  DOPC      C217          -14.6781575565        0.7286981160       -0.7144211836  MEMB      20              0.0000000000
      2708        20  DOPC      H17R          -13.6807358133        1.1330487719       -0.9963292653  MEMB      20              0.0000000000
      2709        20  DOPC      H17S          -15.4379189139        1.4940313218       -0.9897308841  MEMB      20              0.0000000000
      2710        20  DOPC      C218          -14.9760065574       -0.5776580859       -1.4439167915  MEMB      20              0.0000000000
      2711        20  DOPC      H18R          -14.3623314497       -1.3994064107       -1.0094212642  MEMB      20              0.0000000000
      2712        20  DOPC      H18S          -14.7857464190       -0.4983760617       -2.5338578041  MEMB      20              0.0000000000
      2713        20  DOPC      H18T          -16.0329959621       -0.8618017252       -1.2748772714  MEMB      20              0.0000000000
      2714        20  DOPC      C33           -19.8657971245       -0.2437099188       13.1213706332  MEMB      20              0.0000000000
      2715        20  DOPC      H3X           -20.7549588647       -0.9090887506       13.1497585781  MEMB      20              0.0000000000
      2716        20  DOPC      H3Y           -19.5198620344       -0.1911919666       12.0663015665  MEMB      20              0.0000000000
      2717        20  DOPC      C34           -20.2974666986        1.1576036091       13.5956548123  MEMB      20              0.0000000000
      2718        20  DOPC      H4X           -19.4081513323        1.8233701789       13.6607619284  MEMB      20              0.0000000000
      2719        20  DOPC      H4Y           -20.7297672980        1.0781900485       14.6176119837  MEMB      20              0.0000000000
      2720        20  DOPC      C35           -21.3108960358        1.8208801546       12.6472881200  MEMB      20              0.0000000000
      2721        20  DOPC      H5X           -20.8446884292        1.9222710904       11.6430477522  MEMB      20              0.0000000000
      2722        20  DOPC      H5Y           -21.5526410387        2.8403171600       13.0200916786  MEMB      20              0.0000000000
      2723        20  DOPC      C36           -22.6230951123        1.0400602830       12.5599501221  MEMB      20              0.0000000000
      2724        20  DOPC      H6X           -22.4281330987       -0.0294663338       12.3392549594  MEMB      20              0.0000000000
      2725        20  DOPC      H6Y           -23.0751425069        1.1341888415       13.5653664591  MEMB      20              0.0000000000
      2726        20  DOPC      C37           -23.6523240463        1.5390314380       11.5423643905  MEMB      20              0.0000000000
      2727        20  DOPC      H7X           -24.6360661615        1.0712166503       11.7597771493  MEMB      20              0.0000000000
      2728        20  DOPC      H7Y           -23.7500521791        2.6362844161       11.6535945045  MEMB      20              0.0000000000
      2729        20  DOPC      C38           -23.2445995734        1.2571610885       10.1021343548  MEMB      20              0.0000000000
      2730        20  DOPC      H8X           -22.2255277604        1.6974600969       10.0210812834  MEMB      20              0.0000000000
      2731        20  DOPC      H8Y           -23.8845369977        1.8261989788        9.3964185226  MEMB      20              0.0000000000
      2732        20  DOPC      C39           -23.2205727012       -0.1867249986        9.6852122296  MEMB      20              0.0000000000
      2733        20  DOPC      H9X           -23.9445486220       -0.8947867218       10.1227490938  MEMB      20              0.0000000000
      2734        20  DOPC      C310          -22.4399370075       -0.5691884993        8.6771946123  MEMB      20              0.0000000000
      2735        20  DOPC      H10X          -22.4662324839       -1.6000375595        8.3013406872  MEMB      20              0.0000000000
      2736        20  DOPC      C311          -21.5669151895        0.3762789703        7.9101990867  MEMB      20              0.0000000000
      2737        20  DOPC      H11X          -20.5217889263        0.3384887644        8.2709253834  MEMB      20              0.0000000000
      2738        20  DOPC      H11Y          -21.8790258509        1.4484604939        8.0168555941  MEMB      20              0.0000000000
      2739        20  DOPC      C312          -21.7291975877        0.0347970959        6.4255191468  MEMB      20              0.0000000000
      2740        20  DOPC      H12X          -22.1729711203       -0.9683398281        6.2398993760  MEMB      20              0.0000000000
      2741        20  DOPC      H12Y          -20.7208338355        0.0194027989        5.9676794761  MEMB      20              0.0000000000
      2742        20  DOPC      C313          -22.6492469390        1.1140783066        5.8443367542  MEMB      20              0.0000000000
      2743        20  DOPC      H13X          -23.5883516155        1.0967647764        6.4385985171  MEMB      20              0.0000000000
      2744        20  DOPC      H13Y          -22.1665706514        2.0986904928        6.0201865008  MEMB      20              0.0000000000
      2745        20  DOPC      C314          -23.0594305632        1.0573074884        4.3784328352  MEMB      20              0.0000000000
      2746        20  DOPC      H14X          -23.9168900965        0.3805610462        4.2329206346  MEMB      20              0.0000000000
      2747        20  DOPC      H14Y          -23.4158800478        2.0800679967        4.1184903796  MEMB      20              0.0000000000
      2748        20  DOPC      C315          -22.0001638926        0.6302933947        3.3805000672  MEMB      20              0.0000000000
      2749        20  DOPC      H15X          -21.4517545488       -0.2773948715        3.7181274253  MEMB      20              0.0000000000
      2750        20  DOPC      H15Y          -21.2748551890        1.4559893322        3.2602041320  MEMB      20              0.0000000000
      2751        20  DOPC      C316          -22.6409495239        0.3748845493        2.0181686771  MEMB      20              0.0000000000
      2752        20  DOPC      H16X          -23.0015396232       -0.6697215126        1.9866174578  MEMB      20              0.0000000000
      2753        20  DOPC      H16Y          -23.5366972415        1.0180078524        1.8733127064  MEMB      20              0.0000000000
      2754        20  DOPC      C317          -21.6237569632        0.5155569187        0.8928397978  MEMB      20              0.0000000000
      2755        20  DOPC      H17X          -20.6211164917        0.2826171735        1.3135245100  MEMB      20              0.0000000000
      2756        20  DOPC      H17Y          -21.8526320596       -0.2773561519        0.1504512662  MEMB      20              0.0000000000
      2757        20  DOPC      C318          -21.5784736037        1.8829981974        0.2103568940  MEMB      20              0.0000000000
      2758        20  DOPC      H18X          -20.9735707300        1.8526372296       -0.7176139352  MEMB      20              0.0000000000
      2759        20  DOPC      H18Y          -22.5430709660        2.2129669498       -0.1320133734  MEMB      20              0.0000000000
      2760        20  DOPC      H18Z          -21.2591048795        2.6878154900        0.8963248594  MEMB      20              0.0000000000
      2761        21  DOPC      N             -19.0811140293       -7.8204784034       17.8839111221  MEMB      21              0.0000000000
      2762        21  DOPC      C12           -20.5829635309       -7.7096917354       18.1023814373  MEMB      21              0.0000000000
      2763        21  DOPC      H12A          -21.0218650495       -8.7068724014       18.1613443505  MEMB      21              0.0000000000
      2764        21  DOPC      H12B          -21.0604657086       -7.2115948134       17.2753219671  MEMB      21              0.0000000000
      2765        21  DOPC      C13           -18.4721959101       -6.5818688628       18.4685207027  MEMB      21              0.0000000000
      2766        21  DOPC      H13A          -18.8875594157       -6.4376601946       19.4755503231  MEMB      21              0.0000000000
      2767        21  DOPC      H13B          -17.4070331856       -6.6724807593       18.6253266723  MEMB      21              0.0000000000
      2768        21  DOPC      H13C          -18.7125182534       -5.6972081763       17.9014399751  MEMB      21              0.0000000000
      2769        21  DOPC      C14           -18.7035332324       -7.9991076358       16.4494803415  MEMB      21              0.0000000000
      2770        21  DOPC      H14A          -17.6254939659       -8.0873302700       16.3589159190  MEMB      21              0.0000000000
      2771        21  DOPC      H14B          -19.1470191546       -8.9025997452       16.0440057096  MEMB      21              0.0000000000
      2772        21  DOPC      H14C          -19.0088008857       -7.1475939936       15.8481023758  MEMB      21              0.0000000000
      2773        21  DOPC      C15           -18.5262045655       -8.9731366758       18.6779397911  MEMB      21              0.0000000000
      2774        21  DOPC      H15A          -18.9471929900       -9.9213282980       18.3721324213  MEMB      21              0.0000000000
      2775        21  DOPC      H15B          -18.7822373715       -8.8458762546       19.7357219800  MEMB      21              0.0000000000
      2776        21  DOPC      H15C          -17.4502068277       -9.0317593370       18.6041795612  MEMB      21              0.0000000000
      2777        21  DOPC      C11           -20.9848817365       -7.0018837977       19.4229190885  MEMB      21              0.0000000000
      2778        21  DOPC      H11A          -20.7189890084       -5.9239931753       19.4032007404  MEMB      21              0.0000000000
      2779        21  DOPC      H11B          -22.0920506158       -6.9695510177       19.5454030396  MEMB      21              0.0000000000
      2780        21  DOPC      P             -21.1204326227       -8.8431566890       21.1812616400  MEMB      21              0.0000000000
      2781        21  DOPC      O13           -22.2690998846       -8.2988904632       21.9297019553  MEMB      21              0.0000000000
      2782        21  DOPC      O14           -20.1914376686       -9.7857001884       21.8523664617  MEMB      21              0.0000000000
      2783        21  DOPC      O12           -20.3214477992       -7.6450329969       20.5232045869  MEMB      21              0.0000000000
      2784        21  DOPC      O11           -21.6660083432       -9.5528733037       19.8868514001  MEMB      21              0.0000000000
      2785        21  DOPC      C1            -22.9221517854      -10.2213111252       19.8767495709  MEMB      21              0.0000000000
      2786        21  DOPC      HA            -23.5926400078       -9.9530863831       20.7281169487  MEMB      21              0.0000000000
      2787        21  DOPC      HB            -22.7335036097      -11.3180156847       19.9582430176  MEMB      21              0.0000000000
      2788        21  DOPC      C2            -23.6532228790       -9.9304706950       18.5406083750  MEMB      21              0.0000000000
      2789        21  DOPC      HS            -24.4604439515      -10.6920299663       18.4339485175  MEMB      21              0.0000000000
      2790        21  DOPC      O21           -22.7348957972       -9.9391471877       17.4320887114  MEMB      21              0.0000000000
      2791        21  DOPC      C21           -22.3319963829      -11.1675289912       17.1880389991  MEMB      21              0.0000000000
      2792        21  DOPC      O22           -22.9003966209      -12.1771360935       17.5512536535  MEMB      21              0.0000000000
      2793        21  DOPC      C22           -21.0805799732      -11.1422702797       16.3082161269  MEMB      21              0.0000000000
      2794        21  DOPC      H2R           -20.7336342431      -12.1945117158       16.2699597184  MEMB      21              0.0000000000
      2795        21  DOPC      H2S           -20.3026636189      -10.5463891089       16.8192134814  MEMB      21              0.0000000000
      2796        21  DOPC      C3            -24.3619939269       -8.5743147779       18.4783670464  MEMB      21              0.0000000000
      2797        21  DOPC      HX            -23.6088161007       -7.7603571404       18.5525447150  MEMB      21              0.0000000000
      2798        21  DOPC      HY            -25.0023340729       -8.5130989098       19.3765380954  MEMB      21              0.0000000000
      2799        21  DOPC      O31           -25.1326145806       -8.5586606236       17.2501772643  MEMB      21              0.0000000000
      2800        21  DOPC      C31           -24.7883472772       -7.5954752503       16.3907770949  MEMB      21              0.0000000000
      2801        21  DOPC      O32           -24.2754316203       -6.5352272822       16.6985080306  MEMB      21              0.0000000000
      2802        21  DOPC      C32           -25.1102480904       -8.0295637380       14.9684459208  MEMB      21              0.0000000000
      2803        21  DOPC      H2X           -25.4993801723       -9.0690210178       14.9515760576  MEMB      21              0.0000000000
      2804        21  DOPC      H2Y           -25.8962562491       -7.3495800519       14.5783368903  MEMB      21              0.0000000000
      2805        21  DOPC      C23           -21.3506212926      -10.6143011585       14.8737191552  MEMB      21              0.0000000000
      2806        21  DOPC      H3R           -21.0597950917       -9.5478218325       14.7852221759  MEMB      21              0.0000000000
      2807        21  DOPC      H3S           -22.4528107599      -10.6715428054       14.6900574175  MEMB      21              0.0000000000
      2808        21  DOPC      C24           -20.7210637394      -11.4492291410       13.7442764206  MEMB      21              0.0000000000
      2809        21  DOPC      H4R           -21.5398107084      -11.6700658346       13.0250813518  MEMB      21              0.0000000000
      2810        21  DOPC      H4S           -20.3548185227      -12.4213207181       14.1346208428  MEMB      21              0.0000000000
      2811        21  DOPC      C25           -19.6166867287      -10.8108149940       12.8851544058  MEMB      21              0.0000000000
      2812        21  DOPC      H5R           -18.7336115927      -10.5420024404       13.4993679733  MEMB      21              0.0000000000
      2813        21  DOPC      H5S           -20.0132243566       -9.8840427562       12.4172575521  MEMB      21              0.0000000000
      2814        21  DOPC      C26           -19.1946812551      -11.8120267278       11.7881847220  MEMB      21              0.0000000000
      2815        21  DOPC      H6R           -20.1052261807      -12.3218294154       11.3952833513  MEMB      21              0.0000000000
      2816        21  DOPC      H6S           -18.5750024810      -12.6037656315       12.2650141868  MEMB      21              0.0000000000
      2817        21  DOPC      C27           -18.4250731369      -11.2237052968       10.5925026987  MEMB      21              0.0000000000
      2818        21  DOPC      H7R           -17.5613918122      -11.8942561225       10.3733113475  MEMB      21              0.0000000000
      2819        21  DOPC      H7S           -18.0000744403      -10.2280209262       10.8446973852  MEMB      21              0.0000000000
      2820        21  DOPC      C28           -19.2681090027      -11.1503771062        9.3036781133  MEMB      21              0.0000000000
      2821        21  DOPC      H8R           -19.5784339258      -12.1847272773        9.0219671144  MEMB      21              0.0000000000
      2822        21  DOPC      H8S           -18.6256525916      -10.7648282363        8.4808005744  MEMB      21              0.0000000000
      2823        21  DOPC      C29           -20.4529780175      -10.2465910605        9.5128181954  MEMB      21              0.0000000000
      2824        21  DOPC      H9R           -20.3144085354       -9.4544806435       10.2597499990  MEMB      21              0.0000000000
      2825        21  DOPC      C210          -21.6232463986      -10.3246412817        8.8728314393  MEMB      21              0.0000000000
      2826        21  DOPC      H10R          -22.4372676406       -9.6347127863        9.1444420939  MEMB      21              0.0000000000
      2827        21  DOPC      C211          -21.9628115936      -11.3342904176        7.8196282464  MEMB      21              0.0000000000
      2828        21  DOPC      H11R          -23.0553097104      -11.2561552991        7.6410948452  MEMB      21              0.0000000000
      2829        21  DOPC      H11S          -21.7517012774      -12.3709384207        8.1605136147  MEMB      21              0.0000000000
      2830        21  DOPC      C212          -21.2849422237      -11.0729146572        6.4636667688  MEMB      21              0.0000000000
      2831        21  DOPC      H12R          -21.4218002061      -11.9700751978        5.8207186881  MEMB      21              0.0000000000
      2832        21  DOPC      H12S          -20.1904706894      -10.9103937835        6.5797481600  MEMB      21              0.0000000000
      2833        21  DOPC      C213          -21.9434845455       -9.8638778979        5.7915096211  MEMB      21              0.0000000000
      2834        21  DOPC      H13R          -21.4725205530       -8.9553015389        6.2133801098  MEMB      21              0.0000000000
      2835        21  DOPC      H13S          -23.0270761269       -9.8390160404        6.0551878323  MEMB      21              0.0000000000
      2836        21  DOPC      C214          -21.8519095313       -9.8280509403        4.2664144599  MEMB      21              0.0000000000
      2837        21  DOPC      H14R          -20.8384164434      -10.1245960678        3.9248857446  MEMB      21              0.0000000000
      2838        21  DOPC      H14S          -22.0080151222       -8.7705911872        3.9602418803  MEMB      21              0.0000000000
      2839        21  DOPC      C215          -22.9377647151      -10.6791110840        3.5927184039  MEMB      21              0.0000000000
      2840        21  DOPC      H15R          -23.9386093566      -10.3116035856        3.9132896580  MEMB      21              0.0000000000
      2841        21  DOPC      H15S          -22.8552294592      -11.7324934490        3.9375991912  MEMB      21              0.0000000000
      2842        21  DOPC      C216          -22.8352762348      -10.6431680606        2.0645882920  MEMB      21              0.0000000000
      2843        21  DOPC      H16R          -23.5564368853      -11.3670204667        1.6240367045  MEMB      21              0.0000000000
      2844        21  DOPC      H16S          -21.8059994379      -10.9532785655        1.7771580873  MEMB      21              0.0000000000
      2845        21  DOPC      C217          -23.1091070133       -9.2627200559        1.4689345283  MEMB      21              0.0000000000
      2846        21  DOPC      H17R          -23.1532282341       -9.3303506395        0.3648103863  MEMB      21              0.0000000000
      2847        21  DOPC      H17S          -22.2381294652       -8.6132862106        1.6985432451  MEMB      21              0.0000000000
      2848        21  DOPC      C218          -24.4216843409       -8.6301999993        1.9279041352  MEMB      21              0.0000000000
      2849        21  DOPC      H18R          -24.4031161761       -8.2978648060        2.9840642838  MEMB      21              0.0000000000
      2850        21  DOPC      H18S          -25.2580239866       -9.3524238519        1.8022657225  MEMB      21              0.0000000000
      2851        21  DOPC      H18T          -24.6089086859       -7.7374668374        1.2945713707  MEMB      21              0.0000000000
      2852        21  DOPC      C33           -23.8446394768       -7.9222987566       14.0934320616  MEMB      21              0.0000000000
      2853        21  DOPC      H3X           -23.0725524482       -8.6283245945       14.4569616235  MEMB      21              0.0000000000
      2854        21  DOPC      H3Y           -23.4235737859       -6.8978659841       14.1904989444  MEMB      21              0.0000000000
      2855        21  DOPC      C34           -24.1459997047       -8.1943642235       12.6169270466  MEMB      21              0.0000000000
      2856        21  DOPC      H4X           -24.9511235228       -7.5104400400       12.2744986410  MEMB      21              0.0000000000
      2857        21  DOPC      H4Y           -24.5376664438       -9.2362227303       12.5302513265  MEMB      21              0.0000000000
      2858        21  DOPC      C35           -22.9424854677       -8.0694177805       11.6711506254  MEMB      21              0.0000000000
      2859        21  DOPC      H5X           -23.2744322095       -8.1340271183       10.6142062156  MEMB      21              0.0000000000
      2860        21  DOPC      H5Y           -22.3182879430       -8.9788390375       11.8667311456  MEMB      21              0.0000000000
      2861        21  DOPC      C36           -21.9708613139       -6.8834866894       11.8482567926  MEMB      21              0.0000000000
      2862        21  DOPC      H6X           -21.6886878566       -6.7374991140       12.9114737727  MEMB      21              0.0000000000
      2863        21  DOPC      H6Y           -21.0805650130       -7.2960208601       11.3362980225  MEMB      21              0.0000000000
      2864        21  DOPC      C37           -22.1819370350       -5.5065396396       11.1595794928  MEMB      21              0.0000000000
      2865        21  DOPC      H7X           -22.7816240059       -4.8391278021       11.8031720798  MEMB      21              0.0000000000
      2866        21  DOPC      H7Y           -21.1793174721       -5.0138875031       11.1231513920  MEMB      21              0.0000000000
      2867        21  DOPC      C38           -22.7808171760       -5.4647437171        9.7305846606  MEMB      21              0.0000000000
      2868        21  DOPC      H8X           -22.7184214560       -4.4007974506        9.3978084618  MEMB      21              0.0000000000
      2869        21  DOPC      H8Y           -23.8579891677       -5.7273020875        9.7781422113  MEMB      21              0.0000000000
      2870        21  DOPC      C39           -22.0437365565       -6.3446971475        8.7549797345  MEMB      21              0.0000000000
      2871        21  DOPC      H9X           -21.3222808437       -7.0143346113        9.2304027717  MEMB      21              0.0000000000
      2872        21  DOPC      C310          -22.2468799173       -6.5065477995        7.4347963443  MEMB      21              0.0000000000
      2873        21  DOPC      H10X          -21.5269685048       -7.1305840685        6.8913494422  MEMB      21              0.0000000000
      2874        21  DOPC      C311          -23.2846306039       -5.8382280257        6.5711785731  MEMB      21              0.0000000000
      2875        21  DOPC      H11X          -23.2578716538       -4.7411939526        6.7310934422  MEMB      21              0.0000000000
      2876        21  DOPC      H11Y          -24.2875828990       -6.1948533433        6.9005568990  MEMB      21              0.0000000000
      2877        21  DOPC      C312          -23.2312598967       -6.1545499940        5.0493743544  MEMB      21              0.0000000000
      2878        21  DOPC      H12X          -24.0971769643       -5.6623989790        4.5524379613  MEMB      21              0.0000000000
      2879        21  DOPC      H12Y          -23.3744182453       -7.2469366859        4.9030782784  MEMB      21              0.0000000000
      2880        21  DOPC      C313          -21.9561349959       -5.7176828129        4.3036415020  MEMB      21              0.0000000000
      2881        21  DOPC      H13X          -21.8130573191       -4.6174888557        4.3446008990  MEMB      21              0.0000000000
      2882        21  DOPC      H13Y          -21.1004605335       -6.1910349762        4.8232009959  MEMB      21              0.0000000000
      2883        21  DOPC      C314          -21.9164033134       -6.2087732467        2.8442026934  MEMB      21              0.0000000000
      2884        21  DOPC      H14X          -20.9261104223       -6.6591685040        2.6167247773  MEMB      21              0.0000000000
      2885        21  DOPC      H14Y          -22.6755842495       -6.9987690451        2.7615265425  MEMB      21              0.0000000000
      2886        21  DOPC      C315          -22.1951216336       -5.1382492081        1.7916653006  MEMB      21              0.0000000000
      2887        21  DOPC      H15X          -22.3949630776       -4.2082353889        2.3690599181  MEMB      21              0.0000000000
      2888        21  DOPC      H15Y          -23.0987587405       -5.3538783815        1.1862762875  MEMB      21              0.0000000000
      2889        21  DOPC      C316          -20.9741206602       -4.8145592177        0.9355294836  MEMB      21              0.0000000000
      2890        21  DOPC      H16X          -21.0973073038       -3.7869448915        0.5312386884  MEMB      21              0.0000000000
      2891        21  DOPC      H16Y          -20.1320793490       -4.7819968947        1.6600816534  MEMB      21              0.0000000000
      2892        21  DOPC      C317          -20.5751617650       -5.7403753191       -0.2273766332  MEMB      21              0.0000000000
      2893        21  DOPC      H17X          -19.4571781869       -5.7127191975       -0.2722247862  MEMB      21              0.0000000000
      2894        21  DOPC      H17Y          -20.8517409833       -6.7993527831       -0.0381016928  MEMB      21              0.0000000000
      2895        21  DOPC      C318          -21.0778856981       -5.2628543915       -1.5964619651  MEMB      21              0.0000000000
      2896        21  DOPC      H18X          -20.5439901072       -5.7926399390       -2.4154205594  MEMB      21              0.0000000000
      2897        21  DOPC      H18Y          -22.1685118807       -5.4370026477       -1.7010634709  MEMB      21              0.0000000000
      2898        21  DOPC      H18Z          -20.8793564302       -4.1740784724       -1.7188989641  MEMB      21              0.0000000000
      2899        22  DOPC      N              -6.4902847951      -23.6297939873       17.7313617836  MEMB      22              0.0000000000
      2900        22  DOPC      C12            -6.9566418593      -22.7010227728       18.8385471575  MEMB      22              0.0000000000
      2901        22  DOPC      H12A           -8.0380110710      -22.6531394379       18.8262620920  MEMB      22              0.0000000000
      2902        22  DOPC      H12B           -6.5716035682      -21.7040155871       18.6304513994  MEMB      22              0.0000000000
      2903        22  DOPC      C13            -5.4547691692      -22.9466467533       16.9161158311  MEMB      22              0.0000000000
      2904        22  DOPC      H13A           -5.0337432045      -23.5825754242       16.1514618448  MEMB      22              0.0000000000
      2905        22  DOPC      H13B           -5.8311147362      -22.0443221836       16.4470976712  MEMB      22              0.0000000000
      2906        22  DOPC      H13C           -4.6402975589      -22.5716794429       17.5452764791  MEMB      22              0.0000000000
      2907        22  DOPC      C14            -7.6184996004      -24.0059684051       16.8248132144  MEMB      22              0.0000000000
      2908        22  DOPC      H14A           -8.4648038764      -24.4400195697       17.3495940457  MEMB      22              0.0000000000
      2909        22  DOPC      H14B           -7.9743846070      -23.1559707550       16.2573229419  MEMB      22              0.0000000000
      2910        22  DOPC      H14C           -7.2516952708      -24.7486429076       16.1194542319  MEMB      22              0.0000000000
      2911        22  DOPC      C15            -5.8987406697      -24.8744391118       18.3252123433  MEMB      22              0.0000000000
      2912        22  DOPC      H15A           -5.4801878498      -25.5152321763       17.5656311412  MEMB      22              0.0000000000
      2913        22  DOPC      H15B           -6.6580923219      -25.3978697359       18.8945747336  MEMB      22              0.0000000000
      2914        22  DOPC      H15C           -5.1198992435      -24.5544010388       19.0284303058  MEMB      22              0.0000000000
      2915        22  DOPC      C11            -6.5375139353      -23.0570656128       20.2883785934  MEMB      22              0.0000000000
      2916        22  DOPC      H11A           -6.9540298742      -22.3019754800       20.9888908347  MEMB      22              0.0000000000
      2917        22  DOPC      H11B           -6.9958104291      -24.0232871037       20.5841524059  MEMB      22              0.0000000000
      2918        22  DOPC      P              -4.2453523865      -21.8571244290       20.6542849755  MEMB      22              0.0000000000
      2919        22  DOPC      O13            -3.0641373282      -22.3059864992       21.4251983867  MEMB      22              0.0000000000
      2920        22  DOPC      O14            -5.0743430622      -20.7661657655       21.2064650669  MEMB      22              0.0000000000
      2921        22  DOPC      O12            -5.1314802792      -23.1595441702       20.4431827601  MEMB      22              0.0000000000
      2922        22  DOPC      O11            -3.8456789217      -21.6640931485       19.1342215275  MEMB      22              0.0000000000
      2923        22  DOPC      C1             -3.2114883991      -20.5184756031       18.5944624105  MEMB      22              0.0000000000
      2924        22  DOPC      HA             -2.2579391115      -20.3041087722       19.1361181622  MEMB      22              0.0000000000
      2925        22  DOPC      HB             -3.8716779553      -19.6219991808       18.6749802055  MEMB      22              0.0000000000
      2926        22  DOPC      C2             -2.8700396535      -20.7452822238       17.0911835612  MEMB      22              0.0000000000
      2927        22  DOPC      HS             -2.1137335478      -20.0152511310       16.7707507567  MEMB      22              0.0000000000
      2928        22  DOPC      O21            -4.0956609301      -20.6006941875       16.3171383218  MEMB      22              0.0000000000
      2929        22  DOPC      C21            -3.9423484941      -20.0273012909       15.1196152541  MEMB      22              0.0000000000
      2930        22  DOPC      O22            -2.8766548991      -19.7553562845       14.6070991654  MEMB      22              0.0000000000
      2931        22  DOPC      C22            -5.3035976149      -19.7791254938       14.4605640618  MEMB      22              0.0000000000
      2932        22  DOPC      H2R            -5.4346104843      -18.6811848307       14.3670147893  MEMB      22              0.0000000000
      2933        22  DOPC      H2S            -6.1187109336      -20.1867737568       15.0847834917  MEMB      22              0.0000000000
      2934        22  DOPC      C3             -2.1976749280      -22.1410386128       16.8890858502  MEMB      22              0.0000000000
      2935        22  DOPC      HX             -2.7917426137      -22.9187547846       17.4059886488  MEMB      22              0.0000000000
      2936        22  DOPC      HY             -1.1985376699      -22.1386345376       17.3839170917  MEMB      22              0.0000000000
      2937        22  DOPC      O31            -2.1234909480      -22.4879010543       15.5018139790  MEMB      22              0.0000000000
      2938        22  DOPC      C31            -1.0492947921      -22.0589464098       14.8426676108  MEMB      22              0.0000000000
      2939        22  DOPC      O32            -0.0358490540      -21.6068499883       15.3371041397  MEMB      22              0.0000000000
      2940        22  DOPC      C32            -1.3160973305      -22.2974056128       13.3501500761  MEMB      22              0.0000000000
      2941        22  DOPC      H2X            -2.1025670557      -21.5742921174       13.0443396137  MEMB      22              0.0000000000
      2942        22  DOPC      H2Y            -0.3959798814      -22.0411568020       12.7909747256  MEMB      22              0.0000000000
      2943        22  DOPC      C23            -5.2657238205      -20.4174778965       13.0664255029  MEMB      22              0.0000000000
      2944        22  DOPC      H3R            -4.7654528790      -21.4149116360       13.1493256659  MEMB      22              0.0000000000
      2945        22  DOPC      H3S            -4.6291282323      -19.7659248035       12.4172582584  MEMB      22              0.0000000000
      2946        22  DOPC      C24            -6.5954179811      -20.6840337634       12.3460951680  MEMB      22              0.0000000000
      2947        22  DOPC      H4R            -6.9971834989      -19.7366649852       11.9214134881  MEMB      22              0.0000000000
      2948        22  DOPC      H4S            -7.3486781542      -21.1015049006       13.0491741266  MEMB      22              0.0000000000
      2949        22  DOPC      C25            -6.3690727646      -21.7025934598       11.2146677954  MEMB      22              0.0000000000
      2950        22  DOPC      H5R            -7.2342525781      -21.7211568244       10.5130617678  MEMB      22              0.0000000000
      2951        22  DOPC      H5S            -6.2877701222      -22.7158853994       11.6721632665  MEMB      22              0.0000000000
      2952        22  DOPC      C26            -5.0646500260      -21.4481510096       10.4408448636  MEMB      22              0.0000000000
      2953        22  DOPC      H6R            -4.1902345888      -21.3105725517       11.1109254456  MEMB      22              0.0000000000
      2954        22  DOPC      H6S            -5.1486064273      -20.5230541077        9.8407407982  MEMB      22              0.0000000000
      2955        22  DOPC      C27            -4.6403920960      -22.6236652333        9.5768714034  MEMB      22              0.0000000000
      2956        22  DOPC      H7R            -4.6541853128      -23.5600415770       10.1771719940  MEMB      22              0.0000000000
      2957        22  DOPC      H7S            -3.5863216387      -22.4152373191        9.2581031831  MEMB      22              0.0000000000
      2958        22  DOPC      C28            -5.5251585464      -22.8240653870        8.3726705374  MEMB      22              0.0000000000
      2959        22  DOPC      H8R            -5.6107902299      -21.8214830963        7.8994380514  MEMB      22              0.0000000000
      2960        22  DOPC      H8S            -6.5437662880      -23.1608070041        8.6616319954  MEMB      22              0.0000000000
      2961        22  DOPC      C29            -4.7803822251      -23.8462101129        7.5585443176  MEMB      22              0.0000000000
      2962        22  DOPC      H9R            -4.6465672238      -24.8281440104        8.0384184784  MEMB      22              0.0000000000
      2963        22  DOPC      C210           -4.2745624361      -23.6347640377        6.3424899818  MEMB      22              0.0000000000
      2964        22  DOPC      H10R           -3.7209557669      -24.4360137624        5.8310777485  MEMB      22              0.0000000000
      2965        22  DOPC      C211           -4.4042604317      -22.3277027242        5.6238578524  MEMB      22              0.0000000000
      2966        22  DOPC      H11R           -3.7635435481      -22.3499742733        4.7195854876  MEMB      22              0.0000000000
      2967        22  DOPC      H11S           -4.0396462761      -21.4765775506        6.2404619034  MEMB      22              0.0000000000
      2968        22  DOPC      C212           -5.8963322513      -22.1396080718        5.2620008289  MEMB      22              0.0000000000
      2969        22  DOPC      H12R           -6.5097189200      -21.9016475965        6.1547138490  MEMB      22              0.0000000000
      2970        22  DOPC      H12S           -6.3275893263      -23.0765901776        4.8481703603  MEMB      22              0.0000000000
      2971        22  DOPC      C213           -6.1536905278      -21.0135737300        4.2705271141  MEMB      22              0.0000000000
      2972        22  DOPC      H13R           -5.9009649487      -20.0941583158        4.8174473459  MEMB      22              0.0000000000
      2973        22  DOPC      H13S           -7.2376786132      -20.9690379982        4.0311857263  MEMB      22              0.0000000000
      2974        22  DOPC      C214           -5.3408091362      -21.1102428783        2.9800073773  MEMB      22              0.0000000000
      2975        22  DOPC      H14R           -4.3049446713      -20.7633865598        3.1681543777  MEMB      22              0.0000000000
      2976        22  DOPC      H14S           -5.7900972148      -20.4429357749        2.2135333061  MEMB      22              0.0000000000
      2977        22  DOPC      C215           -5.2758952356      -22.5299561559        2.4328863876  MEMB      22              0.0000000000
      2978        22  DOPC      H15R           -6.2735773372      -22.7678134747        2.0013409777  MEMB      22              0.0000000000
      2979        22  DOPC      H15S           -5.0496683085      -23.2715857243        3.2189527463  MEMB      22              0.0000000000
      2980        22  DOPC      C216           -4.1879055052      -22.7273093989        1.3939357902  MEMB      22              0.0000000000
      2981        22  DOPC      H16R           -4.3336795510      -21.9680252208        0.5949430765  MEMB      22              0.0000000000
      2982        22  DOPC      H16S           -4.3528729192      -23.7539787568        0.9971869441  MEMB      22              0.0000000000
      2983        22  DOPC      C217           -2.7374164259      -22.7069117621        1.8814352487  MEMB      22              0.0000000000
      2984        22  DOPC      H17R           -2.5186132468      -23.6892880620        2.3628324016  MEMB      22              0.0000000000
      2985        22  DOPC      H17S           -2.5827989370      -21.9300342683        2.6598731415  MEMB      22              0.0000000000
      2986        22  DOPC      C218           -1.7372374693      -22.4826008246        0.7431850852  MEMB      22              0.0000000000
      2987        22  DOPC      H18R           -2.0355495033      -22.9608183953       -0.2045943675  MEMB      22              0.0000000000
      2988        22  DOPC      H18S           -0.7681449516      -22.9215628321        1.0453066029  MEMB      22              0.0000000000
      2989        22  DOPC      H18T           -1.6154659357      -21.4093538454        0.5064737100  MEMB      22              0.0000000000
      2990        22  DOPC      C33            -1.8145392421      -23.7264671166       12.9833451873  MEMB      22              0.0000000000
      2991        22  DOPC      H3X            -2.6982585116      -24.0055415528       13.6047909714  MEMB      22              0.0000000000
      2992        22  DOPC      H3Y            -1.0314672704      -24.4799652414       13.1728589703  MEMB      22              0.0000000000
      2993        22  DOPC      C34            -2.2461814202      -23.7509896350       11.5108739084  MEMB      22              0.0000000000
      2994        22  DOPC      H4X            -1.5928743732      -23.0567769281       10.9355025033  MEMB      22              0.0000000000
      2995        22  DOPC      H4Y            -3.2643156102      -23.3188644163       11.5370604937  MEMB      22              0.0000000000
      2996        22  DOPC      C35            -2.2638862071      -25.1189190720       10.8029626470  MEMB      22              0.0000000000
      2997        22  DOPC      H5X            -3.2851787843      -25.5602651732       10.8534089758  MEMB      22              0.0000000000
      2998        22  DOPC      H5Y            -1.5786835819      -25.8086410362       11.3447690508  MEMB      22              0.0000000000
      2999        22  DOPC      C36            -1.8055596044      -25.0795898122        9.3237848517  MEMB      22              0.0000000000
      3000        22  DOPC      H6X            -2.5153135480      -24.5057159663        8.6991599985  MEMB      22              0.0000000000
      3001        22  DOPC      H6Y            -0.8283482094      -24.5540438035        9.2610894272  MEMB      22              0.0000000000
      3002        22  DOPC      C37            -1.6373187512      -26.5012077550        8.7644176014  MEMB      22              0.0000000000
      3003        22  DOPC      H7X            -0.9950122019      -27.0235867031        9.5114121493  MEMB      22              0.0000000000
      3004        22  DOPC      H7Y            -2.6208681333      -27.0205329988        8.7404557546  MEMB      22              0.0000000000
      3005        22  DOPC      C38            -0.9105608058      -26.6414892230        7.4066062017  MEMB      22              0.0000000000
      3006        22  DOPC      H8X            -0.4948512260      -27.6757188958        7.3818862039  MEMB      22              0.0000000000
      3007        22  DOPC      H8Y            -0.0430596240      -25.9481295544        7.4082292041  MEMB      22              0.0000000000
      3008        22  DOPC      C39            -1.7709815957      -26.4609375151        6.1816768523  MEMB      22              0.0000000000
      3009        22  DOPC      H9X            -2.7547507783      -26.9556033238        6.2342160593  MEMB      22              0.0000000000
      3010        22  DOPC      C310           -1.4130814555      -25.8531746840        5.0325539411  MEMB      22              0.0000000000
      3011        22  DOPC      H10X           -2.1490455409      -25.8154170618        4.2119028648  MEMB      22              0.0000000000
      3012        22  DOPC      C311           -0.0759137653      -25.2221991714        4.7123506026  MEMB      22              0.0000000000
      3013        22  DOPC      H11X            0.2593282884      -25.6212601385        3.7269418324  MEMB      22              0.0000000000
      3014        22  DOPC      H11Y            0.7132083413      -25.5247060501        5.4356756635  MEMB      22              0.0000000000
      3015        22  DOPC      C312           -0.0605089229      -23.6779878715        4.6000636515  MEMB      22              0.0000000000
      3016        22  DOPC      H12X           -0.9102493335      -23.3450277300        3.9659695068  MEMB      22              0.0000000000
      3017        22  DOPC      H12Y            0.8755159645      -23.3929870447        4.0660971229  MEMB      22              0.0000000000
      3018        22  DOPC      C313           -0.0793252073      -22.9132693794        5.9443901880  MEMB      22              0.0000000000
      3019        22  DOPC      H13X           -1.0979274992      -23.0015932989        6.3823565568  MEMB      22              0.0000000000
      3020        22  DOPC      H13Y            0.6363030566      -23.4031930897        6.6418076961  MEMB      22              0.0000000000
      3021        22  DOPC      C314            0.3029742867      -21.4135535762        5.8517244576  MEMB      22              0.0000000000
      3022        22  DOPC      H14X            0.1649429125      -20.9238589144        6.8395901402  MEMB      22              0.0000000000
      3023        22  DOPC      H14Y            1.3836312491      -21.3423065381        5.5841357176  MEMB      22              0.0000000000
      3024        22  DOPC      C315           -0.4817952950      -20.6584070774        4.7703407134  MEMB      22              0.0000000000
      3025        22  DOPC      H15X           -1.5794940864      -20.7361293364        4.9415534896  MEMB      22              0.0000000000
      3026        22  DOPC      H15Y           -0.2399377393      -21.2390429819        3.8603841218  MEMB      22              0.0000000000
      3027        22  DOPC      C316           -0.0893789457      -19.1772238753        4.5615163607  MEMB      22              0.0000000000
      3028        22  DOPC      H16X           -0.7757177665      -18.5379561198        5.1606960555  MEMB      22              0.0000000000
      3029        22  DOPC      H16Y            0.9367832789      -19.0024517328        4.9589451024  MEMB      22              0.0000000000
      3030        22  DOPC      C317           -0.1010765173      -18.6930903487        3.0903646910  MEMB      22              0.0000000000
      3031        22  DOPC      H17X           -0.4409097990      -17.6319610341        3.0577642972  MEMB      22              0.0000000000
      3032        22  DOPC      H17Y            0.9427653755      -18.6915486627        2.7077315008  MEMB      22              0.0000000000
      3033        22  DOPC      C318           -0.9420887484      -19.5256110564        2.1215259829  MEMB      22              0.0000000000
      3034        22  DOPC      H18X           -2.0084993421      -19.5584620107        2.4145142676  MEMB      22              0.0000000000
      3035        22  DOPC      H18Y           -0.8717757209      -19.1632622261        1.0777799413  MEMB      22              0.0000000000
      3036        22  DOPC      H18Z           -0.5813581143      -20.5674123223        2.1015310775  MEMB      22              0.0000000000
      3037        23  DOPC      N              10.3364464259       21.1108758175       21.1025725528  MEMB      23              0.0000000000
      3038        23  DOPC      C12            11.0258295516       20.0644887802       20.2236885610  MEMB      23              0.0000000000
      3039        23  DOPC      H12A           11.5955692457       19.3858842430       20.8521383959  MEMB      23              0.0000000000
      3040        23  DOPC      H12B           11.7412795158       20.5748089903       19.5847716737  MEMB      23              0.0000000000
      3041        23  DOPC      C13             9.2311627516       20.5600123633       21.9574599004  MEMB      23              0.0000000000
      3042        23  DOPC      H13A            8.4845884377       20.0777546952       21.3356192793  MEMB      23              0.0000000000
      3043        23  DOPC      H13B            9.5971104443       19.8743835973       22.7163923046  MEMB      23              0.0000000000
      3044        23  DOPC      H13C            8.7534233565       21.3861967339       22.4849861557  MEMB      23              0.0000000000
      3045        23  DOPC      C14             9.7123493304       22.1590825554       20.2234054560  MEMB      23              0.0000000000
      3046        23  DOPC      H14A            9.0540513688       21.6624012028       19.5033744858  MEMB      23              0.0000000000
      3047        23  DOPC      H14B            9.1586307765       22.8831461441       20.7983626230  MEMB      23              0.0000000000
      3048        23  DOPC      H14C           10.4414450100       22.6723705745       19.6095623207  MEMB      23              0.0000000000
      3049        23  DOPC      C15            11.3431391831       21.7486540316       22.0112382341  MEMB      23              0.0000000000
      3050        23  DOPC      H15A           12.0053639298       22.4131317081       21.4696006308  MEMB      23              0.0000000000
      3051        23  DOPC      H15B           11.9684409255       20.9984250601       22.4802512040  MEMB      23              0.0000000000
      3052        23  DOPC      H15C           10.8515204909       22.3340416596       22.7750568254  MEMB      23              0.0000000000
      3053        23  DOPC      C11            10.1644329825       19.2350338806       19.2432435316  MEMB      23              0.0000000000
      3054        23  DOPC      H11A           10.7918411628       18.4375651369       18.7747956772  MEMB      23              0.0000000000
      3055        23  DOPC      H11B            9.3166219240       18.7299917089       19.7536014639  MEMB      23              0.0000000000
      3056        23  DOPC      P               9.7949280870       20.0741461525       16.7331665471  MEMB      23              0.0000000000
      3057        23  DOPC      O13             9.6470592567       21.4796564131       16.3058630774  MEMB      23              0.0000000000
      3058        23  DOPC      O14             8.8630699914       19.0630748798       16.1972439627  MEMB      23              0.0000000000
      3059        23  DOPC      O12             9.6344983871       20.1178053413       18.2910300348  MEMB      23              0.0000000000
      3060        23  DOPC      O11            11.3077085351       19.5901630452       16.4813769344  MEMB      23              0.0000000000
      3061        23  DOPC      C1             11.7075778834       19.5160133401       15.1011707493  MEMB      23              0.0000000000
      3062        23  DOPC      HA             10.9592454517       18.9933241850       14.4578904195  MEMB      23              0.0000000000
      3063        23  DOPC      HB             12.6243310913       18.8914741306       15.0169523973  MEMB      23              0.0000000000
      3064        23  DOPC      C2             11.9656082677       20.9544075750       14.5829080232  MEMB      23              0.0000000000
      3065        23  DOPC      HS             11.8038963178       21.6498068195       15.4315823889  MEMB      23              0.0000000000
      3066        23  DOPC      O21            11.0206700134       21.2561395912       13.5113401166  MEMB      23              0.0000000000
      3067        23  DOPC      C21            11.1601859976       22.5140631776       13.1209887939  MEMB      23              0.0000000000
      3068        23  DOPC      O22            12.0201106935       23.2872391570       13.4977936134  MEMB      23              0.0000000000
      3069        23  DOPC      C22            10.1277978087       22.9469851289       12.1038204950  MEMB      23              0.0000000000
      3070        23  DOPC      H2R             9.2148077819       23.2608954066       12.6564353165  MEMB      23              0.0000000000
      3071        23  DOPC      H2S             9.8744951175       22.1181664554       11.4208535951  MEMB      23              0.0000000000
      3072        23  DOPC      C3             13.4503102483       21.1179987324       14.1337800735  MEMB      23              0.0000000000
      3073        23  DOPC      HX             14.0045917446       20.2331311240       14.4949984718  MEMB      23              0.0000000000
      3074        23  DOPC      HY             13.8632286013       22.0467205406       14.5931144314  MEMB      23              0.0000000000
      3075        23  DOPC      O31            13.5263779040       21.1773103610       12.7283061133  MEMB      23              0.0000000000
      3076        23  DOPC      C31            14.6265847103       21.3477660611       12.0757037014  MEMB      23              0.0000000000
      3077        23  DOPC      O32            15.6242941726       21.9502060092       12.4197112052  MEMB      23              0.0000000000
      3078        23  DOPC      C32            14.4178957996       20.5251925984       10.7740931621  MEMB      23              0.0000000000
      3079        23  DOPC      H2X            14.4128348451       21.2416439677        9.9289878826  MEMB      23              0.0000000000
      3080        23  DOPC      H2Y            15.2909374316       19.8531682963       10.6763994794  MEMB      23              0.0000000000
      3081        23  DOPC      C23            10.7281388743       24.1596181735       11.3512601737  MEMB      23              0.0000000000
      3082        23  DOPC      H3R            10.9048612710       24.9942151485       12.0724952500  MEMB      23              0.0000000000
      3083        23  DOPC      H3S             9.9773009313       24.5195011992       10.6244601687  MEMB      23              0.0000000000
      3084        23  DOPC      C24            12.0929299989       23.8975170302       10.6760643810  MEMB      23              0.0000000000
      3085        23  DOPC      H4R            12.3810196417       22.8298623681       10.7231986696  MEMB      23              0.0000000000
      3086        23  DOPC      H4S            12.8490134586       24.4468134969       11.2879313408  MEMB      23              0.0000000000
      3087        23  DOPC      C25            12.1960354805       24.4099678632        9.2394393956  MEMB      23              0.0000000000
      3088        23  DOPC      H5R            13.0225168657       25.1419031985        9.1814386733  MEMB      23              0.0000000000
      3089        23  DOPC      H5S            11.2936779218       24.9845491589        9.0059760650  MEMB      23              0.0000000000
      3090        23  DOPC      C26            12.4843402156       23.3755919603        8.1432999069  MEMB      23              0.0000000000
      3091        23  DOPC      H6R            13.5245380013       23.0131135661        8.2978624891  MEMB      23              0.0000000000
      3092        23  DOPC      H6S            12.4518232682       23.9117094488        7.1689790861  MEMB      23              0.0000000000
      3093        23  DOPC      C27            11.5507675803       22.1608125406        8.0412993263  MEMB      23              0.0000000000
      3094        23  DOPC      H7R            10.4911193001       22.4867573247        7.9657640257  MEMB      23              0.0000000000
      3095        23  DOPC      H7S            11.6430301974       21.5608318720        8.9693505812  MEMB      23              0.0000000000
      3096        23  DOPC      C28            11.8615770752       21.2903121885        6.8036761178  MEMB      23              0.0000000000
      3097        23  DOPC      H8R            11.5784641065       21.8714393960        5.8983845246  MEMB      23              0.0000000000
      3098        23  DOPC      H8S            11.1893298895       20.4052234097        6.8153676201  MEMB      23              0.0000000000
      3099        23  DOPC      C29            13.2998113884       20.8378878978        6.7262940663  MEMB      23              0.0000000000
      3100        23  DOPC      H9R            13.5361909258       19.9217832436        7.2797271174  MEMB      23              0.0000000000
      3101        23  DOPC      C210           14.2895905423       21.3923415275        6.0076336920  MEMB      23              0.0000000000
      3102        23  DOPC      H10R           15.2840907306       20.9201260568        6.0421105302  MEMB      23              0.0000000000
      3103        23  DOPC      C211           14.2079024306       22.5960323846        5.1062346007  MEMB      23              0.0000000000
      3104        23  DOPC      H11R           15.2525101844       22.8549825088        4.8291613693  MEMB      23              0.0000000000
      3105        23  DOPC      H11S           13.8281713057       23.4906352243        5.6435132226  MEMB      23              0.0000000000
      3106        23  DOPC      C212           13.4073692782       22.4301381429        3.7871111497  MEMB      23              0.0000000000
      3107        23  DOPC      H12R           14.0321153773       22.8931648453        2.9893554137  MEMB      23              0.0000000000
      3108        23  DOPC      H12S           12.4771495466       23.0400795697        3.8257042380  MEMB      23              0.0000000000
      3109        23  DOPC      C213           13.0768975435       20.9752159197        3.3716219292  MEMB      23              0.0000000000
      3110        23  DOPC      H13R           12.1356994125       20.6583865806        3.8742166968  MEMB      23              0.0000000000
      3111        23  DOPC      H13S           13.8583609442       20.2558324164        3.7015637879  MEMB      23              0.0000000000
      3112        23  DOPC      C214           13.0202445810       20.7898374234        1.8449771578  MEMB      23              0.0000000000
      3113        23  DOPC      H14R           13.8710692739       21.3376608245        1.3916239799  MEMB      23              0.0000000000
      3114        23  DOPC      H14S           12.0836482960       21.2495506846        1.4931196216  MEMB      23              0.0000000000
      3115        23  DOPC      C215           13.0796526780       19.3049053948        1.4396394708  MEMB      23              0.0000000000
      3116        23  DOPC      H15R           12.3035702245       18.8234194089        2.0665276378  MEMB      23              0.0000000000
      3117        23  DOPC      H15S           14.0643056738       18.8783656670        1.7405421649  MEMB      23              0.0000000000
      3118        23  DOPC      C216           12.8379331512       18.9690317776       -0.0453616548  MEMB      23              0.0000000000
      3119        23  DOPC      H16R           13.8046686028       18.7118163112       -0.5246101514  MEMB      23              0.0000000000
      3120        23  DOPC      H16S           12.4744502847       19.8609116317       -0.5970459801  MEMB      23              0.0000000000
      3121        23  DOPC      C217           11.8205566209       17.8348614522       -0.2928953711  MEMB      23              0.0000000000
      3122        23  DOPC      H17R           12.0967812718       17.3142915424       -1.2394459421  MEMB      23              0.0000000000
      3123        23  DOPC      H17S           10.8334158619       18.3230392085       -0.4615670543  MEMB      23              0.0000000000
      3124        23  DOPC      C218           11.6295776825       16.7740799191        0.8019985131  MEMB      23              0.0000000000
      3125        23  DOPC      H18R           11.1490624563       17.2052000343        1.7026878383  MEMB      23              0.0000000000
      3126        23  DOPC      H18S           12.5940113608       16.3253488291        1.1143919148  MEMB      23              0.0000000000
      3127        23  DOPC      H18T           10.9484481521       15.9687401490        0.4526299043  MEMB      23              0.0000000000
      3128        23  DOPC      C33            13.0416920382       19.7677418154       10.8621529739  MEMB      23              0.0000000000
      3129        23  DOPC      H3X            12.2579983896       20.5621289262       10.9017510205  MEMB      23              0.0000000000
      3130        23  DOPC      H3Y            12.9859101788       19.2015366163       11.8250650963  MEMB      23              0.0000000000
      3131        23  DOPC      C34            12.5311772236       18.7772581351        9.8194604203  MEMB      23              0.0000000000
      3132        23  DOPC      H4X            13.1133048702       17.8338836337        9.8331565776  MEMB      23              0.0000000000
      3133        23  DOPC      H4Y            12.5753847371       19.1882745927        8.7997048097  MEMB      23              0.0000000000
      3134        23  DOPC      C35            11.0622423973       18.4496807603       10.1507522954  MEMB      23              0.0000000000
      3135        23  DOPC      H5X            10.8188959197       18.7215381715       11.2034092541  MEMB      23              0.0000000000
      3136        23  DOPC      H5Y            10.8979851181       17.3631142443       10.0787793902  MEMB      23              0.0000000000
      3137        23  DOPC      C36            10.0556370798       19.0668714797        9.1763297436  MEMB      23              0.0000000000
      3138        23  DOPC      H6X            10.0301450723       20.1662426299        9.3050377363  MEMB      23              0.0000000000
      3139        23  DOPC      H6Y            10.4140649426       18.8293980864        8.1508581450  MEMB      23              0.0000000000
      3140        23  DOPC      C37             8.6502479821       18.4768834548        9.3671033884  MEMB      23              0.0000000000
      3141        23  DOPC      H7X             8.7450683045       17.3724813207        9.2351125613  MEMB      23              0.0000000000
      3142        23  DOPC      H7Y             8.3331801066       18.6690142943       10.4165743500  MEMB      23              0.0000000000
      3143        23  DOPC      C38             7.5535884544       19.0448815874        8.4511060336  MEMB      23              0.0000000000
      3144        23  DOPC      H8X             7.9946304431       19.8365720128        7.8038133827  MEMB      23              0.0000000000
      3145        23  DOPC      H8Y             6.8036572931       19.5587864219        9.0920202522  MEMB      23              0.0000000000
      3146        23  DOPC      C39             6.8818850359       17.9585652828        7.6442061789  MEMB      23              0.0000000000
      3147        23  DOPC      H9X             5.9185145138       17.5926421405        8.0315456577  MEMB      23              0.0000000000
      3148        23  DOPC      C310            7.3927220756       17.4246184249        6.5237091776  MEMB      23              0.0000000000
      3149        23  DOPC      H10X            6.8589679804       16.6128392296        6.0118652858  MEMB      23              0.0000000000
      3150        23  DOPC      C311            8.7028728054       17.8307835063        5.9055804184  MEMB      23              0.0000000000
      3151        23  DOPC      H11X            9.4437560308       17.0036981460        5.9623566693  MEMB      23              0.0000000000
      3152        23  DOPC      H11Y            9.1596292214       18.6796526690        6.4586277997  MEMB      23              0.0000000000
      3153        23  DOPC      C312            8.5566889098       18.2992410326        4.4510975676  MEMB      23              0.0000000000
      3154        23  DOPC      H12X            7.5528442236       18.7454145275        4.2696606352  MEMB      23              0.0000000000
      3155        23  DOPC      H12Y            8.6732112597       17.4328072454        3.7649518661  MEMB      23              0.0000000000
      3156        23  DOPC      C313            9.6110969376       19.3602187776        4.1370704162  MEMB      23              0.0000000000
      3157        23  DOPC      H13X            9.4033142126       20.2756745099        4.7388779319  MEMB      23              0.0000000000
      3158        23  DOPC      H13Y           10.6065215201       18.9710858590        4.4552173503  MEMB      23              0.0000000000
      3159        23  DOPC      C314            9.7025708927       19.7473213707        2.6602373643  MEMB      23              0.0000000000
      3160        23  DOPC      H14X           10.5226865338       20.4817382971        2.5960904247  MEMB      23              0.0000000000
      3161        23  DOPC      H14Y            9.9722729614       18.8736239573        2.0341671113  MEMB      23              0.0000000000
      3162        23  DOPC      C315            8.4564632442       20.4094964572        2.0795518926  MEMB      23              0.0000000000
      3163        23  DOPC      H15X            8.0948934671       21.1833980442        2.7896725256  MEMB      23              0.0000000000
      3164        23  DOPC      H15Y            7.6904281390       19.6196241786        1.9776052248  MEMB      23              0.0000000000
      3165        23  DOPC      C316            8.7060861631       21.0541205006        0.7066597178  MEMB      23              0.0000000000
      3166        23  DOPC      H16X            9.1624844013       20.2974084219        0.0299506796  MEMB      23              0.0000000000
      3167        23  DOPC      H16Y            7.7253475290       21.3454828792        0.2656305253  MEMB      23              0.0000000000
      3168        23  DOPC      C317            9.6092778336       22.2985740350        0.7927873814  MEMB      23              0.0000000000
      3169        23  DOPC      H17X            8.9619657727       23.1965092415        0.7540407476  MEMB      23              0.0000000000
      3170        23  DOPC      H17Y           10.1051973950       22.3272631363        1.7887087197  MEMB      23              0.0000000000
      3171        23  DOPC      C318           10.6889849926       22.4163581941       -0.2891559306  MEMB      23              0.0000000000
      3172        23  DOPC      H18X           11.3249017068       23.3082577698       -0.0936995903  MEMB      23              0.0000000000
      3173        23  DOPC      H18Y           11.3373090050       21.5230193182       -0.3074657597  MEMB      23              0.0000000000
      3174        23  DOPC      H18Z           10.2623718029       22.4933240982       -1.3041070302  MEMB      23              0.0000000000
      3175        24  DOPC      N             -20.6285931187       12.0659007141       19.6812240386  MEMB      24              0.0000000000
      3176        24  DOPC      C12           -19.8320410442       10.8322335471       20.1091854688  MEMB      24              0.0000000000
      3177        24  DOPC      H12A          -20.3102320992       10.3778609457       20.9744889092  MEMB      24              0.0000000000
      3178        24  DOPC      H12B          -18.8364917253       11.1340706151       20.4243768715  MEMB      24              0.0000000000
      3179        24  DOPC      C13           -19.8963037216       12.7989930188       18.6083255238  MEMB      24              0.0000000000
      3180        24  DOPC      H13A          -20.5094260475       13.5792270314       18.1725520279  MEMB      24              0.0000000000
      3181        24  DOPC      H13B          -18.9769270208       13.2367796303       18.9777131769  MEMB      24              0.0000000000
      3182        24  DOPC      H13C          -19.6224102879       12.0824525504       17.8391329361  MEMB      24              0.0000000000
      3183        24  DOPC      C14           -20.9114259786       12.9615448278       20.8377358038  MEMB      24              0.0000000000
      3184        24  DOPC      H14A          -21.4875684685       12.4193805488       21.5917927014  MEMB      24              0.0000000000
      3185        24  DOPC      H14B          -19.9890952713       13.2876191206       21.3000750947  MEMB      24              0.0000000000
      3186        24  DOPC      H14C          -21.5063292105       13.8118984812       20.5229998906  MEMB      24              0.0000000000
      3187        24  DOPC      C15           -21.9408802207       11.5831024648       19.1321934423  MEMB      24              0.0000000000
      3188        24  DOPC      H15A          -22.4532258691       10.9662907164       19.8624992766  MEMB      24              0.0000000000
      3189        24  DOPC      H15B          -21.7209177793       10.8740180257       18.3300603556  MEMB      24              0.0000000000
      3190        24  DOPC      H15C          -22.5880222086       12.3568533713       18.7780400926  MEMB      24              0.0000000000
      3191        24  DOPC      C11           -19.6944513637        9.6960813946       19.0597997805  MEMB      24              0.0000000000
      3192        24  DOPC      H11A          -19.2246946910       10.1063840928       18.1382889243  MEMB      24              0.0000000000
      3193        24  DOPC      H11B          -18.9962277093        8.9195309461       19.4562460584  MEMB      24              0.0000000000
      3194        24  DOPC      P             -21.5004314777        7.7640401572       19.2607296461  MEMB      24              0.0000000000
      3195        24  DOPC      O13           -22.9452320093        7.7030425152       18.9363303312  MEMB      24              0.0000000000
      3196        24  DOPC      O14           -21.1544375687        7.5971830738       20.6902351099  MEMB      24              0.0000000000
      3197        24  DOPC      O12           -20.9616751344        9.1426126678       18.7090824885  MEMB      24              0.0000000000
      3198        24  DOPC      O11           -20.7410172783        6.6768898674       18.4051886964  MEMB      24              0.0000000000
      3199        24  DOPC      C1            -20.0163603599        6.9422306280       17.2091977087  MEMB      24              0.0000000000
      3200        24  DOPC      HA            -19.1872513873        6.2009117396       17.1430817197  MEMB      24              0.0000000000
      3201        24  DOPC      HB            -19.5289187221        7.9419881120       17.1959617314  MEMB      24              0.0000000000
      3202        24  DOPC      C2            -20.8888770348        6.7638909130       15.9398980807  MEMB      24              0.0000000000
      3203        24  DOPC      HS            -20.2137353531        6.8179202693       15.0549807105  MEMB      24              0.0000000000
      3204        24  DOPC      O21           -21.9220652453        7.7579615144       15.8190764326  MEMB      24              0.0000000000
      3205        24  DOPC      C21           -21.4608513952        8.9214601593       15.3827723493  MEMB      24              0.0000000000
      3206        24  DOPC      O22           -20.2978274605        9.1749250697       15.1283771079  MEMB      24              0.0000000000
      3207        24  DOPC      C22           -22.6417874340        9.8633795378       15.1206016929  MEMB      24              0.0000000000
      3208        24  DOPC      H2R           -22.8714777434       10.3683273642       16.0810792717  MEMB      24              0.0000000000
      3209        24  DOPC      H2S           -23.5236119941        9.2633867069       14.8140008974  MEMB      24              0.0000000000
      3210        24  DOPC      C3            -21.5450274161        5.3664790032       15.8892224851  MEMB      24              0.0000000000
      3211        24  DOPC      HX            -22.3895665318        5.3323467837       16.6156503945  MEMB      24              0.0000000000
      3212        24  DOPC      HY            -20.7858879609        4.6113121553       16.1886151649  MEMB      24              0.0000000000
      3213        24  DOPC      O31           -21.9283425125        5.1430531594       14.5244232801  MEMB      24              0.0000000000
      3214        24  DOPC      C31           -23.1940122782        4.9002862855       14.2590732060  MEMB      24              0.0000000000
      3215        24  DOPC      O32           -23.9984342305        4.3596044613       14.9981423949  MEMB      24              0.0000000000
      3216        24  DOPC      C32           -23.4676581993        5.4078024490       12.8430890665  MEMB      24              0.0000000000
      3217        24  DOPC      H2X           -22.9026995351        6.3520449504       12.6880129255  MEMB      24              0.0000000000
      3218        24  DOPC      H2Y           -23.0377486036        4.6472312035       12.1624787347  MEMB      24              0.0000000000
      3219        24  DOPC      C23           -22.3100532416       10.9237669021       14.0397825440  MEMB      24              0.0000000000
      3220        24  DOPC      H3R           -21.2594988715       11.2767016164       14.1291079647  MEMB      24              0.0000000000
      3221        24  DOPC      H3S           -22.9342149761       11.8206208773       14.2045844375  MEMB      24              0.0000000000
      3222        24  DOPC      C24           -22.5970534556       10.4738758136       12.6020529129  MEMB      24              0.0000000000
      3223        24  DOPC      H4R           -22.6900237464       11.3991759109       11.9840559612  MEMB      24              0.0000000000
      3224        24  DOPC      H4S           -23.5649382157        9.9336065020       12.5159847269  MEMB      24              0.0000000000
      3225        24  DOPC      C25           -21.4531933155        9.6474615466       12.0229529328  MEMB      24              0.0000000000
      3226        24  DOPC      H5R           -21.5272559099        8.5886278987       12.3591514951  MEMB      24              0.0000000000
      3227        24  DOPC      H5S           -20.4833569637       10.0464424507       12.4017372015  MEMB      24              0.0000000000
      3228        24  DOPC      C26           -21.4024419409        9.6975264611       10.4983412250  MEMB      24              0.0000000000
      3229        24  DOPC      H6R           -21.3174845798       10.7475568399       10.1371699263  MEMB      24              0.0000000000
      3230        24  DOPC      H6S           -22.3517266251        9.2779790811       10.0947302501  MEMB      24              0.0000000000
      3231        24  DOPC      C27           -20.2142988564        8.8795230982        9.9991821465  MEMB      24              0.0000000000
      3232        24  DOPC      H7R           -20.1760721905        7.9432617267       10.5953145714  MEMB      24              0.0000000000
      3233        24  DOPC      H7S           -19.2662726584        9.4238552663       10.2123568792  MEMB      24              0.0000000000
      3234        24  DOPC      C28           -20.3665256728        8.4863373380        8.5327733091  MEMB      24              0.0000000000
      3235        24  DOPC      H8R           -21.4381783408        8.5569102083        8.2480122129  MEMB      24              0.0000000000
      3236        24  DOPC      H8S           -20.0588155637        7.4308795261        8.3850424802  MEMB      24              0.0000000000
      3237        24  DOPC      C29           -19.5181247361        9.3467352608        7.6643885615  MEMB      24              0.0000000000
      3238        24  DOPC      H9R           -18.4810765476        9.5007734299        8.0045345330  MEMB      24              0.0000000000
      3239        24  DOPC      C210          -19.9166173379        9.9228252299        6.5351995759  MEMB      24              0.0000000000
      3240        24  DOPC      H10R          -19.1469759367       10.4360089254        6.0029498552  MEMB      24              0.0000000000
      3241        24  DOPC      C211          -21.2441286701        9.8920580465        5.8307464630  MEMB      24              0.0000000000
      3242        24  DOPC      H11R          -21.3730213298       10.8396583602        5.2577606233  MEMB      24              0.0000000000
      3243        24  DOPC      H11S          -22.0905837510        9.8302674106        6.5471945696  MEMB      24              0.0000000000
      3244        24  DOPC      C212          -21.3377191855        8.7299140239        4.8283346558  MEMB      24              0.0000000000
      3245        24  DOPC      H12R          -20.5847416521        8.8816521318        4.0219432757  MEMB      24              0.0000000000
      3246        24  DOPC      H12S          -22.3436340746        8.7671425216        4.3523446577  MEMB      24              0.0000000000
      3247        24  DOPC      C213          -21.1396388618        7.3371938583        5.4545840445  MEMB      24              0.0000000000
      3248        24  DOPC      H13R          -21.6929349224        7.2964575041        6.4141379720  MEMB      24              0.0000000000
      3249        24  DOPC      H13S          -20.0618204254        7.1929839287        5.6892181567  MEMB      24              0.0000000000
      3250        24  DOPC      C214          -21.6090048357        6.1942450280        4.5454022538  MEMB      24              0.0000000000
      3251        24  DOPC      H14R          -22.6952324965        6.2936568768        4.3567608221  MEMB      24              0.0000000000
      3252        24  DOPC      H14S          -21.4805735791        5.2170670275        5.0508351511  MEMB      24              0.0000000000
      3253        24  DOPC      C215          -20.8654375705        6.2234624081        3.2152208146  MEMB      24              0.0000000000
      3254        24  DOPC      H15R          -19.7794497604        6.0661495327        3.4014581934  MEMB      24              0.0000000000
      3255        24  DOPC      H15S          -20.9916542178        7.2304363954        2.7558949991  MEMB      24              0.0000000000
      3256        24  DOPC      C216          -21.3644964687        5.2202562993        2.1802888695  MEMB      24              0.0000000000
      3257        24  DOPC      H16R          -22.4721515378        5.2764981412        2.0973955868  MEMB      24              0.0000000000
      3258        24  DOPC      H16S          -21.1113098377        4.1897368394        2.5098469205  MEMB      24              0.0000000000
      3259        24  DOPC      C217          -20.7163572624        5.5355086267        0.8277178974  MEMB      24              0.0000000000
      3260        24  DOPC      H17R          -20.4986081641        4.5929083578        0.2919739604  MEMB      24              0.0000000000
      3261        24  DOPC      H17S          -19.7508042515        6.0625397938        1.0122439470  MEMB      24              0.0000000000
      3262        24  DOPC      C218          -21.5793696948        6.4043017103       -0.0735683977  MEMB      24              0.0000000000
      3263        24  DOPC      H18R          -21.0635832167        6.6576393709       -1.0185718875  MEMB      24              0.0000000000
      3264        24  DOPC      H18S          -21.8054770834        7.3553450024        0.4482702616  MEMB      24              0.0000000000
      3265        24  DOPC      H18T          -22.5306030337        5.8807633740       -0.3169897399  MEMB      24              0.0000000000
      3266        24  DOPC      C33           -24.9621916232        5.6467599358       12.5225245887  MEMB      24              0.0000000000
      3267        24  DOPC      H3X           -25.1389951666        6.7417021484       12.4184549365  MEMB      24              0.0000000000
      3268        24  DOPC      H3Y           -25.6244323432        5.2895073967       13.3448224471  MEMB      24              0.0000000000
      3269        24  DOPC      C34           -25.4102187281        4.9411634384       11.2314124844  MEMB      24              0.0000000000
      3270        24  DOPC      H4X           -26.4523547844        5.2439596212       11.0010458882  MEMB      24              0.0000000000
      3271        24  DOPC      H4Y           -25.4361848962        3.8463110684       11.4165656328  MEMB      24              0.0000000000
      3272        24  DOPC      C35           -24.5482174458        5.2167330617        9.9851794336  MEMB      24              0.0000000000
      3273        24  DOPC      H5X           -24.9749684571        4.6160154742        9.1512454919  MEMB      24              0.0000000000
      3274        24  DOPC      H5Y           -23.5045927633        4.8631484935       10.1334937387  MEMB      24              0.0000000000
      3275        24  DOPC      C36           -24.5305551655        6.6999312346        9.5898296235  MEMB      24              0.0000000000
      3276        24  DOPC      H6X           -25.5785398013        7.0656152614        9.5004437791  MEMB      24              0.0000000000
      3277        24  DOPC      H6Y           -24.0413025875        7.2857132966       10.4013578938  MEMB      24              0.0000000000
      3278        24  DOPC      C37           -23.7824903358        6.9930180244        8.2776301117  MEMB      24              0.0000000000
      3279        24  DOPC      H7X           -23.8936908718        8.0781170180        8.0459441577  MEMB      24              0.0000000000
      3280        24  DOPC      H7Y           -22.6992670411        6.7980340900        8.4422444507  MEMB      24              0.0000000000
      3281        24  DOPC      C38           -24.2374005905        6.1808697205        7.0510048516  MEMB      24              0.0000000000
      3282        24  DOPC      H8X           -24.0004747997        5.1039111838        7.2067373208  MEMB      24              0.0000000000
      3283        24  DOPC      H8Y           -23.6401180038        6.5133530638        6.1837934728  MEMB      24              0.0000000000
      3284        24  DOPC      C39           -25.6965055683        6.3809067001        6.7598974092  MEMB      24              0.0000000000
      3285        24  DOPC      H9X           -26.3578241826        5.6857174200        7.2993638013  MEMB      24              0.0000000000
      3286        24  DOPC      C310          -26.2668036809        7.2861660207        5.9429235690  MEMB      24              0.0000000000
      3287        24  DOPC      H10X          -27.3638610328        7.2640845867        5.8812667375  MEMB      24              0.0000000000
      3288        24  DOPC      C311          -25.6731751531        8.3668455999        5.0702045025  MEMB      24              0.0000000000
      3289        24  DOPC      H11X          -24.6014625027        8.5549471581        5.3038357668  MEMB      24              0.0000000000
      3290        24  DOPC      H11Y          -26.2494845953        9.2862348026        5.3020937591  MEMB      24              0.0000000000
      3291        24  DOPC      C312          -25.8312204230        8.2443596837        3.5332173257  MEMB      24              0.0000000000
      3292        24  DOPC      H12X          -25.6206496970        9.2429934612        3.0921963397  MEMB      24              0.0000000000
      3293        24  DOPC      H12Y          -26.8866859355        8.0305606870        3.2892851432  MEMB      24              0.0000000000
      3294        24  DOPC      C313          -24.8699697897        7.2130582605        2.9264689879  MEMB      24              0.0000000000
      3295        24  DOPC      H13X          -23.8560421565        7.4965065251        3.2768666071  MEMB      24              0.0000000000
      3296        24  DOPC      H13Y          -25.1052375354        6.2068718263        3.3362072983  MEMB      24              0.0000000000
      3297        24  DOPC      C314          -24.7559288689        7.1634317630        1.3908562476  MEMB      24              0.0000000000
      3298        24  DOPC      H14X          -24.0749109229        6.3165386217        1.1544164112  MEMB      24              0.0000000000
      3299        24  DOPC      H14Y          -25.7118284323        6.9314102614        0.9106644416  MEMB      24              0.0000000000
      3300        24  DOPC      C315          -24.1902281239        8.4662722656        0.7991749985  MEMB      24              0.0000000000
      3301        24  DOPC      H15X          -23.1804424512        8.5764228378        1.2517837302  MEMB      24              0.0000000000
      3302        24  DOPC      H15Y          -24.7805314662        9.3387387892        1.1388302770  MEMB      24              0.0000000000
      3303        24  DOPC      C316          -24.0417151940        8.5150945148       -0.7350435726  MEMB      24              0.0000000000
      3304        24  DOPC      H16X          -23.1996450042        9.2092800525       -0.9652541690  MEMB      24              0.0000000000
      3305        24  DOPC      H16Y          -23.7597775793        7.5219333725       -1.1416937355  MEMB      24              0.0000000000
      3306        24  DOPC      C317          -25.2580176855        9.0328524341       -1.5152297146  MEMB      24              0.0000000000
      3307        24  DOPC      H17X          -26.1784541613        8.5086389710       -1.1773646825  MEMB      24              0.0000000000
      3308        24  DOPC      H17Y          -25.3856993651       10.1180787155       -1.2967271289  MEMB      24              0.0000000000
      3309        24  DOPC      C318          -25.0804273596        8.8389451374       -3.0267433229  MEMB      24              0.0000000000
      3310        24  DOPC      H18X          -24.8480663873        7.7759794426       -3.2569186498  MEMB      24              0.0000000000
      3311        24  DOPC      H18Y          -25.9887339799        9.1358838756       -3.5908073093  MEMB      24              0.0000000000
      3312        24  DOPC      H18Z          -24.2310621782        9.4543741393       -3.3867194914  MEMB      24              0.0000000000
      3313        25  DOPC      N              17.0593090844       14.3259995618       21.0310538943  MEMB      25              0.0000000000
      3314        25  DOPC      C12            17.9263655107       13.9051289654       19.8567124650  MEMB      25              0.0000000000
      3315        25  DOPC      H12A           17.7774989382       12.8596515528       19.6324512893  MEMB      25              0.0000000000
      3316        25  DOPC      H12B           18.9573322141       14.0250839273       20.1605151218  MEMB      25              0.0000000000
      3317        25  DOPC      C13            15.6068055308       14.1100468940       20.7665245993  MEMB      25              0.0000000000
      3318        25  DOPC      H13A           15.4058303337       13.0593109180       20.6053136321  MEMB      25              0.0000000000
      3319        25  DOPC      H13B           15.0319135761       14.4329379455       21.6375091765  MEMB      25              0.0000000000
      3320        25  DOPC      H13C           15.2915414096       14.6694042132       19.8922053699  MEMB      25              0.0000000000
      3321        25  DOPC      C14            17.2911778858       15.7811164752       21.3330965236  MEMB      25              0.0000000000
      3322        25  DOPC      H14A           17.0420538907       16.3905470759       20.4632308243  MEMB      25              0.0000000000
      3323        25  DOPC      H14B           16.7630095178       16.1207897229       22.2077263634  MEMB      25              0.0000000000
      3324        25  DOPC      H14C           18.3518936149       15.9697220684       21.4676413022  MEMB      25              0.0000000000
      3325        25  DOPC      C15            17.4473668758       13.6211709767       22.2763509128  MEMB      25              0.0000000000
      3326        25  DOPC      H15A           16.8800773688       14.0629711588       23.0909874766  MEMB      25              0.0000000000
      3327        25  DOPC      H15B           18.4750974146       13.7785070248       22.5745721399  MEMB      25              0.0000000000
      3328        25  DOPC      H15C           17.1965396545       12.5598793259       22.2980296401  MEMB      25              0.0000000000
      3329        25  DOPC      C11            17.8308149524       14.7011027459       18.5345073432  MEMB      25              0.0000000000
      3330        25  DOPC      H11A           18.5771754826       14.2588829176       17.8292332767  MEMB      25              0.0000000000
      3331        25  DOPC      H11B           16.8250406771       14.6123021442       18.0731120433  MEMB      25              0.0000000000
      3332        25  DOPC      P              18.7356107033       17.0263099791       17.7135001995  MEMB      25              0.0000000000
      3333        25  DOPC      O13            18.7560601987       16.3565103890       16.3915056861  MEMB      25              0.0000000000
      3334        25  DOPC      O14            19.9954660411       17.5481753561       18.2789189449  MEMB      25              0.0000000000
      3335        25  DOPC      O12            18.1251108553       16.0588909020       18.7840291739  MEMB      25              0.0000000000
      3336        25  DOPC      O11            17.6324502494       18.1762091710       17.7458741193  MEMB      25              0.0000000000
      3337        25  DOPC      C1             16.2620966934       17.8754496470       18.0678108197  MEMB      25              0.0000000000
      3338        25  DOPC      HA             16.0555785106       18.1708535118       19.1177172787  MEMB      25              0.0000000000
      3339        25  DOPC      HB             16.0310404310       16.7876060113       17.9660665661  MEMB      25              0.0000000000
      3340        25  DOPC      C2             15.2319420371       18.5651018431       17.1211149415  MEMB      25              0.0000000000
      3341        25  DOPC      HS             14.2177373240       18.1550249646       17.3413599011  MEMB      25              0.0000000000
      3342        25  DOPC      O21            15.5752711543       18.2996814955       15.7588027541  MEMB      25              0.0000000000
      3343        25  DOPC      C21            15.3549160217       17.0718847981       15.3139424932  MEMB      25              0.0000000000
      3344        25  DOPC      O22            14.6715721173       16.2253359003       15.8628853127  MEMB      25              0.0000000000
      3345        25  DOPC      C22            16.2055626175       16.8692968330       14.0477440212  MEMB      25              0.0000000000
      3346        25  DOPC      H2R            17.2235387954       16.6903804333       14.4644895658  MEMB      25              0.0000000000
      3347        25  DOPC      H2S            16.2409401196       17.8380498274       13.5229288632  MEMB      25              0.0000000000
      3348        25  DOPC      C3             15.1265912943       20.1129645167       17.3400914501  MEMB      25              0.0000000000
      3349        25  DOPC      HX             14.7408851434       20.2656066877       18.3719527756  MEMB      25              0.0000000000
      3350        25  DOPC      HY             14.3497912677       20.5203783239       16.6518931348  MEMB      25              0.0000000000
      3351        25  DOPC      O31            16.3900472838       20.8096479977       17.2116914770  MEMB      25              0.0000000000
      3352        25  DOPC      C31            16.7894598808       20.9553208791       15.9489553671  MEMB      25              0.0000000000
      3353        25  DOPC      O32            16.0983085234       20.8109992775       14.9686233586  MEMB      25              0.0000000000
      3354        25  DOPC      C32            18.2252357352       21.4183646519       15.8702242975  MEMB      25              0.0000000000
      3355        25  DOPC      H2X            18.3227777178       22.0002867016       14.9317185239  MEMB      25              0.0000000000
      3356        25  DOPC      H2Y            18.4578593476       22.0715010433       16.7292750581  MEMB      25              0.0000000000
      3357        25  DOPC      C23            15.9205098680       15.6585678228       13.0999843338  MEMB      25              0.0000000000
      3358        25  DOPC      H3R            15.3025493719       14.8933214407       13.6210058204  MEMB      25              0.0000000000
      3359        25  DOPC      H3S            16.8990018957       15.1643389214       12.9006044710  MEMB      25              0.0000000000
      3360        25  DOPC      C24            15.3084121929       15.9657744140       11.7111499633  MEMB      25              0.0000000000
      3361        25  DOPC      H4R            14.2219393221       16.1517405825       11.8779416159  MEMB      25              0.0000000000
      3362        25  DOPC      H4S            15.3769568024       15.0584626729       11.0693178387  MEMB      25              0.0000000000
      3363        25  DOPC      C25            15.8644448630       17.1782357306       10.9307137365  MEMB      25              0.0000000000
      3364        25  DOPC      H5R            16.3219030175       17.9408708541       11.5867028840  MEMB      25              0.0000000000
      3365        25  DOPC      H5S            14.9818330434       17.6677486194       10.4816112249  MEMB      25              0.0000000000
      3366        25  DOPC      C26            16.8383174219       16.9004829437        9.7752766731  MEMB      25              0.0000000000
      3367        25  DOPC      H6R            16.4433708052       16.1000988936        9.1166364269  MEMB      25              0.0000000000
      3368        25  DOPC      H6S            17.7993836439       16.5302071148       10.1869274362  MEMB      25              0.0000000000
      3369        25  DOPC      C27            17.1377592589       18.1757357800        8.9531187147  MEMB      25              0.0000000000
      3370        25  DOPC      H7R            18.0043341330       17.9994088896        8.2793549684  MEMB      25              0.0000000000
      3371        25  DOPC      H7S            17.4418553968       18.9799607908        9.6642269603  MEMB      25              0.0000000000
      3372        25  DOPC      C28            15.9674251763       18.6788979014        8.0825918068  MEMB      25              0.0000000000
      3373        25  DOPC      H8R            16.2806999961       19.6197286389        7.5795230811  MEMB      25              0.0000000000
      3374        25  DOPC      H8S            15.1315664142       18.9572311370        8.7540447694  MEMB      25              0.0000000000
      3375        25  DOPC      C29            15.4636069775       17.6649564192        7.0876581478  MEMB      25              0.0000000000
      3376        25  DOPC      H9R            14.6663507160       17.0295131292        7.4945272162  MEMB      25              0.0000000000
      3377        25  DOPC      C210           15.8723718978       17.4789152949        5.8161730986  MEMB      25              0.0000000000
      3378        25  DOPC      H10R           15.4272172981       16.6640542268        5.2232900763  MEMB      25              0.0000000000
      3379        25  DOPC      C211           16.9466457677       18.2675109785        5.1129938152  MEMB      25              0.0000000000
      3380        25  DOPC      H11R           17.8406091198       17.6145517500        5.0023202594  MEMB      25              0.0000000000
      3381        25  DOPC      H11S           17.2853766090       19.1035220515        5.7569179686  MEMB      25              0.0000000000
      3382        25  DOPC      C212           16.5998682521       18.8323838656        3.7020062307  MEMB      25              0.0000000000
      3383        25  DOPC      H12R           15.5099068056       18.9045618824        3.5236702654  MEMB      25              0.0000000000
      3384        25  DOPC      H12S           17.0429092108       18.0944831887        3.0044637650  MEMB      25              0.0000000000
      3385        25  DOPC      C213           17.3008879924       20.1752597169        3.4087823806  MEMB      25              0.0000000000
      3386        25  DOPC      H13R           18.2865002376       19.9619118621        2.9405808333  MEMB      25              0.0000000000
      3387        25  DOPC      H13S           17.4248503594       20.6225092663        4.4198071748  MEMB      25              0.0000000000
      3388        25  DOPC      C214           16.6637827635       21.3581635017        2.6710761689  MEMB      25              0.0000000000
      3389        25  DOPC      H14R           15.6562641379       21.5099449466        3.0876635250  MEMB      25              0.0000000000
      3390        25  DOPC      H14S           16.5689495296       21.1852592363        1.5809096580  MEMB      25              0.0000000000
      3391        25  DOPC      C215           17.4942048301       22.6497944266        2.9147614712  MEMB      25              0.0000000000
      3392        25  DOPC      H15R           18.4015894558       22.5992330741        2.2783933856  MEMB      25              0.0000000000
      3393        25  DOPC      H15S           17.8445081021       22.6750857538        3.9739438300  MEMB      25              0.0000000000
      3394        25  DOPC      C216           16.7004002100       23.9386855832        2.6417451628  MEMB      25              0.0000000000
      3395        25  DOPC      H16R           16.2373465125       24.2933073495        3.5892814902  MEMB      25              0.0000000000
      3396        25  DOPC      H16S           15.8790487060       23.6728167972        1.9419124859  MEMB      25              0.0000000000
      3397        25  DOPC      C217           17.4421766157       25.1235316024        2.0080590694  MEMB      25              0.0000000000
      3398        25  DOPC      H17R           18.3984747350       25.3631319431        2.5228563986  MEMB      25              0.0000000000
      3399        25  DOPC      H17S           16.7809007786       26.0123739288        2.1479793466  MEMB      25              0.0000000000
      3400        25  DOPC      C218           17.6610432088       24.9707531519        0.5044325224  MEMB      25              0.0000000000
      3401        25  DOPC      H18R           17.6487280640       25.9718904059        0.0246970520  MEMB      25              0.0000000000
      3402        25  DOPC      H18S           16.8539840494       24.3676569193        0.0304134076  MEMB      25              0.0000000000
      3403        25  DOPC      H18T           18.6419976479       24.4865910603        0.3027902568  MEMB      25              0.0000000000
      3404        25  DOPC      C33            19.2154392548       20.2451081747       15.8162075170  MEMB      25              0.0000000000
      3405        25  DOPC      H3X            19.3112434972       19.7923761220       16.8292221961  MEMB      25              0.0000000000
      3406        25  DOPC      H3Y            20.2002924299       20.6781437338       15.5698728521  MEMB      25              0.0000000000
      3407        25  DOPC      C34            18.9082006259       19.1108014709       14.8142617913  MEMB      25              0.0000000000
      3408        25  DOPC      H4X            17.9987173040       18.5684077011       15.1438174758  MEMB      25              0.0000000000
      3409        25  DOPC      H4Y            19.7407329991       18.3798280593       14.9176702575  MEMB      25              0.0000000000
      3410        25  DOPC      C35            18.7505589353       19.4724408303       13.3281212895  MEMB      25              0.0000000000
      3411        25  DOPC      H5X            19.1786177014       20.4821064150       13.1473864879  MEMB      25              0.0000000000
      3412        25  DOPC      H5Y            17.6686060535       19.5422035078       13.0789282859  MEMB      25              0.0000000000
      3413        25  DOPC      C36            19.4565733920       18.4957990748       12.3614166064  MEMB      25              0.0000000000
      3414        25  DOPC      H6X            19.1447091877       18.7255178281       11.3181313812  MEMB      25              0.0000000000
      3415        25  DOPC      H6Y            20.5510079675       18.6579914928       12.4070746976  MEMB      25              0.0000000000
      3416        25  DOPC      C37            19.2736809884       16.9942434392       12.6028854851  MEMB      25              0.0000000000
      3417        25  DOPC      H7X            19.4390820902       16.7114178713       13.6667638347  MEMB      25              0.0000000000
      3418        25  DOPC      H7Y            18.2186555196       16.7742278749       12.3557345416  MEMB      25              0.0000000000
      3419        25  DOPC      C38            20.2426880481       16.1831051837       11.7212087100  MEMB      25              0.0000000000
      3420        25  DOPC      H8X            21.1861386995       16.0124658596       12.2873282518  MEMB      25              0.0000000000
      3421        25  DOPC      H8Y            20.4754321156       16.7846519914       10.8214646916  MEMB      25              0.0000000000
      3422        25  DOPC      C39            19.6050856178       14.8954845612       11.3192477203  MEMB      25              0.0000000000
      3423        25  DOPC      H9X            18.9325768720       14.5273368301       12.0982893863  MEMB      25              0.0000000000
      3424        25  DOPC      C310           19.7053133933       14.2622044758       10.1379907647  MEMB      25              0.0000000000
      3425        25  DOPC      H10X           19.1744201938       13.3262582804       10.0010078025  MEMB      25              0.0000000000
      3426        25  DOPC      C311           20.4881434275       14.6762904145        8.9260379899  MEMB      25              0.0000000000
      3427        25  DOPC      H11X           20.9535521018       13.7759037612        8.4753090893  MEMB      25              0.0000000000
      3428        25  DOPC      H11Y           21.3351163055       15.3153239809        9.2496840641  MEMB      25              0.0000000000
      3429        25  DOPC      C312           19.7260482752       15.4820967130        7.8473514541  MEMB      25              0.0000000000
      3430        25  DOPC      H12X           20.4835290536       15.8719483039        7.1328030544  MEMB      25              0.0000000000
      3431        25  DOPC      H12Y           19.2476857428       16.3544710175        8.3353510346  MEMB      25              0.0000000000
      3432        25  DOPC      C313           18.6587685698       14.7751437286        7.0024098194  MEMB      25              0.0000000000
      3433        25  DOPC      H13X           17.7552522366       14.5707925969        7.6265226560  MEMB      25              0.0000000000
      3434        25  DOPC      H13Y           18.3290069144       15.4534569272        6.1825678100  MEMB      25              0.0000000000
      3435        25  DOPC      C314           19.0733087904       13.4389138733        6.3909970689  MEMB      25              0.0000000000
      3436        25  DOPC      H14X           19.0691666390       12.7211093254        7.2442258011  MEMB      25              0.0000000000
      3437        25  DOPC      H14Y           18.2834904131       13.1492647171        5.6555890854  MEMB      25              0.0000000000
      3438        25  DOPC      C315           20.4350101754       13.2285200579        5.7069393906  MEMB      25              0.0000000000
      3439        25  DOPC      H15X           20.3261831852       12.2616062496        5.1650735375  MEMB      25              0.0000000000
      3440        25  DOPC      H15Y           21.2157894021       13.1060613092        6.4867083562  MEMB      25              0.0000000000
      3441        25  DOPC      C316           20.9224236756       14.2296512840        4.6616708132  MEMB      25              0.0000000000
      3442        25  DOPC      H16X           21.3493782099       15.1059224480        5.1981714878  MEMB      25              0.0000000000
      3443        25  DOPC      H16Y           21.7583517798       13.7634836978        4.0886601301  MEMB      25              0.0000000000
      3444        25  DOPC      C317           19.8492456268       14.7097129576        3.6882743486  MEMB      25              0.0000000000
      3445        25  DOPC      H17X           19.9996520756       14.2523136198        2.6835997408  MEMB      25              0.0000000000
      3446        25  DOPC      H17Y           18.8405957275       14.3897471749        4.0247648122  MEMB      25              0.0000000000
      3447        25  DOPC      C318           19.8634225520       16.2307898121        3.6133196264  MEMB      25              0.0000000000
      3448        25  DOPC      H18X           18.9890800654       16.6049213468        3.0487037561  MEMB      25              0.0000000000
      3449        25  DOPC      H18Y           19.8206349067       16.6553208835        4.6400683208  MEMB      25              0.0000000000
      3450        25  DOPC      H18Z           20.7966498170       16.5819443029        3.1278310010  MEMB      25              0.0000000000
      3451        26  DOPC      N              23.9881840224       -2.4476100242       18.8701187498  MEMB      26              0.0000000000
      3452        26  DOPC      C12            24.8501931936       -1.5295849936       19.7218813650  MEMB      26              0.0000000000
      3453        26  DOPC      H12A           25.8964019715       -1.7876701733       19.5757013545  MEMB      26              0.0000000000
      3454        26  DOPC      H12B           24.6362484469       -1.6910366586       20.7745884617  MEMB      26              0.0000000000
      3455        26  DOPC      C13            24.0927702448       -3.8250054091       19.3872564754  MEMB      26              0.0000000000
      3456        26  DOPC      H13A           25.1136276604       -4.1801897883       19.3904522332  MEMB      26              0.0000000000
      3457        26  DOPC      H13B           23.6745149713       -3.9442939401       20.3823193439  MEMB      26              0.0000000000
      3458        26  DOPC      H13C           23.5098681578       -4.5196085401       18.7832108817  MEMB      26              0.0000000000
      3459        26  DOPC      C14            24.4511558052       -2.4014858708       17.4390482777  MEMB      26              0.0000000000
      3460        26  DOPC      H14A           23.8569565478       -3.0397656100       16.7932313153  MEMB      26              0.0000000000
      3461        26  DOPC      H14B           24.3596120376       -1.3889863442       17.0644078384  MEMB      26              0.0000000000
      3462        26  DOPC      H14C           25.4888922921       -2.7048910680       17.3356198892  MEMB      26              0.0000000000
      3463        26  DOPC      C15            22.5464250430       -2.0333810627       18.9627725237  MEMB      26              0.0000000000
      3464        26  DOPC      H15A           22.4774599904       -0.9774390561       18.6955472869  MEMB      26              0.0000000000
      3465        26  DOPC      H15B           22.2016123772       -2.0626965943       19.9927991475  MEMB      26              0.0000000000
      3466        26  DOPC      H15C           21.8813101246       -2.6211255609       18.3480490768  MEMB      26              0.0000000000
      3467        26  DOPC      C11            24.7106602005       -0.0108587359       19.4858725639  MEMB      26              0.0000000000
      3468        26  DOPC      H11A           25.4494947987        0.5376968373       20.1131706996  MEMB      26              0.0000000000
      3469        26  DOPC      H11B           24.9868479104        0.1456195462       18.4285465509  MEMB      26              0.0000000000
      3470        26  DOPC      P              22.9771714162        1.9633153384       19.6098367317  MEMB      26              0.0000000000
      3471        26  DOPC      O13            24.0224256776        2.8683734957       20.1615761869  MEMB      26              0.0000000000
      3472        26  DOPC      O14            21.6020423915        2.1088482465       20.1266800419  MEMB      26              0.0000000000
      3473        26  DOPC      O12            23.3877383153        0.4346101190       19.7709158601  MEMB      26              0.0000000000
      3474        26  DOPC      O11            22.9226911584        2.1046279716       18.0306734371  MEMB      26              0.0000000000
      3475        26  DOPC      C1             22.7940696392        1.0715580531       17.0451047814  MEMB      26              0.0000000000
      3476        26  DOPC      HA             21.9844147238        0.3547261779       17.3021826282  MEMB      26              0.0000000000
      3477        26  DOPC      HB             23.7433919372        0.5070465782       16.9523057444  MEMB      26              0.0000000000
      3478        26  DOPC      C2             22.5130955548        1.6221224586       15.6053018901  MEMB      26              0.0000000000
      3479        26  DOPC      HS             21.4126315242        1.5549995791       15.4431649191  MEMB      26              0.0000000000
      3480        26  DOPC      O21            23.2816346373        0.8713576121       14.6361998212  MEMB      26              0.0000000000
      3481        26  DOPC      C21            22.6996377139        0.6754911907       13.4542177253  MEMB      26              0.0000000000
      3482        26  DOPC      O22            21.5006977715        0.6818103295       13.2480046781  MEMB      26              0.0000000000
      3483        26  DOPC      C22            23.8003899154        0.4128031526       12.4089522903  MEMB      26              0.0000000000
      3484        26  DOPC      H2R            24.4899898054       -0.3402164192       12.8429410587  MEMB      26              0.0000000000
      3485        26  DOPC      H2S            24.3588247298        1.3617628874       12.2750761140  MEMB      26              0.0000000000
      3486        26  DOPC      C3             22.9375761452        3.1111924398       15.4612023645  MEMB      26              0.0000000000
      3487        26  DOPC      HX             24.0501868877        3.1197872489       15.4127525848  MEMB      26              0.0000000000
      3488        26  DOPC      HY             22.6638630633        3.6901923960       16.3716103249  MEMB      26              0.0000000000
      3489        26  DOPC      O31            22.4058811435        3.7066126321       14.2530288142  MEMB      26              0.0000000000
      3490        26  DOPC      C31            21.1530076229        4.1263446706       14.3574029137  MEMB      26              0.0000000000
      3491        26  DOPC      O32            20.5104825921        4.1170943160       15.4001766608  MEMB      26              0.0000000000
      3492        26  DOPC      C32            20.6326311827        4.6932990039       13.0429295613  MEMB      26              0.0000000000
      3493        26  DOPC      H2X            19.6769416684        5.1898793314       13.3171826654  MEMB      26              0.0000000000
      3494        26  DOPC      H2Y            21.3415097458        5.4654629353       12.6877746660  MEMB      26              0.0000000000
      3495        26  DOPC      C23            23.2806322358       -0.1013636659       11.0398020952  MEMB      26              0.0000000000
      3496        26  DOPC      H3R            22.8413028158        0.7376444645       10.4562414932  MEMB      26              0.0000000000
      3497        26  DOPC      H3S            22.4675749143       -0.8432821494       11.2132055446  MEMB      26              0.0000000000
      3498        26  DOPC      C24            24.3615879485       -0.8019013854       10.1884091780  MEMB      26              0.0000000000
      3499        26  DOPC      H4R            24.9112432394       -1.5335396081       10.8228905473  MEMB      26              0.0000000000
      3500        26  DOPC      H4S            25.0969240981       -0.0469207602        9.8314796984  MEMB      26              0.0000000000
      3501        26  DOPC      C25            23.7460657275       -1.5478253615        8.9894720591  MEMB      26              0.0000000000
      3502        26  DOPC      H5R            23.1033361506       -0.8308581586        8.4329187558  MEMB      26              0.0000000000
      3503        26  DOPC      H5S            23.0867598277       -2.3597138646        9.3720993538  MEMB      26              0.0000000000
      3504        26  DOPC      C26            24.7609632708       -2.1762043664        8.0156998913  MEMB      26              0.0000000000
      3505        26  DOPC      H6R            25.3948470071       -2.9067379675        8.5665131020  MEMB      26              0.0000000000
      3506        26  DOPC      H6S            25.4393036704       -1.3859380084        7.6256124976  MEMB      26              0.0000000000
      3507        26  DOPC      C27            24.0974813188       -2.9092286855        6.8253044045  MEMB      26              0.0000000000
      3508        26  DOPC      H7R            23.5373326358       -3.7872975441        7.2220966210  MEMB      26              0.0000000000
      3509        26  DOPC      H7S            24.8947150939       -3.3054065100        6.1563887685  MEMB      26              0.0000000000
      3510        26  DOPC      C28            23.1169650903       -2.0593948635        5.9820528284  MEMB      26              0.0000000000
      3511        26  DOPC      H8R            22.2138071998       -1.8606436080        6.6007270670  MEMB      26              0.0000000000
      3512        26  DOPC      H8S            22.7739998502       -2.6731504151        5.1187090647  MEMB      26              0.0000000000
      3513        26  DOPC      C29            23.7216949500       -0.7447013576        5.5501255172  MEMB      26              0.0000000000
      3514        26  DOPC      H9R            24.1002581420       -0.1356902154        6.3850435033  MEMB      26              0.0000000000
      3515        26  DOPC      C210           23.8189851090       -0.2283158410        4.3119616363  MEMB      26              0.0000000000
      3516        26  DOPC      H10R           24.2825192498        0.7646005230        4.2106973233  MEMB      26              0.0000000000
      3517        26  DOPC      C211           23.3457675903       -0.8281419603        3.0115196959  MEMB      26              0.0000000000
      3518        26  DOPC      H11R           23.1095258836       -1.9086822055        3.1125963507  MEMB      26              0.0000000000
      3519        26  DOPC      H11S           24.1583452912       -0.7510462791        2.2529577241  MEMB      26              0.0000000000
      3520        26  DOPC      C212           22.1081171264       -0.0942061775        2.4504081042  MEMB      26              0.0000000000
      3521        26  DOPC      H12R           21.7836991914       -0.6268861918        1.5312081508  MEMB      26              0.0000000000
      3522        26  DOPC      H12S           22.4088019187        0.9329811440        2.1551467954  MEMB      26              0.0000000000
      3523        26  DOPC      C213           20.9197462701        0.0026925999        3.4254240895  MEMB      26              0.0000000000
      3524        26  DOPC      H13R           21.2117021519        0.6206620712        4.3033973538  MEMB      26              0.0000000000
      3525        26  DOPC      H13S           20.7120437534       -1.0280922542        3.7972044167  MEMB      26              0.0000000000
      3526        26  DOPC      C214           19.6060295257        0.5656890278        2.8356287900  MEMB      26              0.0000000000
      3527        26  DOPC      H14R           18.8319116070        0.4442234844        3.6315827417  MEMB      26              0.0000000000
      3528        26  DOPC      H14S           19.2810916632       -0.0644630489        1.9846146373  MEMB      26              0.0000000000
      3529        26  DOPC      C215           19.5799773110        2.0638926573        2.4457019828  MEMB      26              0.0000000000
      3530        26  DOPC      H15R           19.8932693544        2.6570360888        3.3349750743  MEMB      26              0.0000000000
      3531        26  DOPC      H15S           18.5220658344        2.3347906234        2.2277560668  MEMB      26              0.0000000000
      3532        26  DOPC      C216           20.4361782218        2.5017162278        1.2384599946  MEMB      26              0.0000000000
      3533        26  DOPC      H16R           20.9367970148        1.6237728857        0.7850477375  MEMB      26              0.0000000000
      3534        26  DOPC      H16S           21.2359571187        3.1742601992        1.6187255038  MEMB      26              0.0000000000
      3535        26  DOPC      C217           19.6699888212        3.2386060667        0.1238273618  MEMB      26              0.0000000000
      3536        26  DOPC      H17R           19.0431755672        4.0299292814        0.5858156091  MEMB      26              0.0000000000
      3537        26  DOPC      H17S           18.9619980783        2.5316528976       -0.3621208683  MEMB      26              0.0000000000
      3538        26  DOPC      C218           20.5841261491        3.8712379495       -0.9427441456  MEMB      26              0.0000000000
      3539        26  DOPC      H18R           20.0001199828        4.2484919621       -1.8043759514  MEMB      26              0.0000000000
      3540        26  DOPC      H18S           21.2879005333        3.1555634516       -1.3749758505  MEMB      26              0.0000000000
      3541        26  DOPC      H18T           21.2085326276        4.6828547666       -0.5187864438  MEMB      26              0.0000000000
      3542        26  DOPC      C33            20.3028045322        3.6690441037       11.9263667148  MEMB      26              0.0000000000
      3543        26  DOPC      H3X            19.2965086942        3.9304328699       11.5203359870  MEMB      26              0.0000000000
      3544        26  DOPC      H3Y            20.2216585931        2.6372222272       12.3308757690  MEMB      26              0.0000000000
      3545        26  DOPC      C34            21.2709586309        3.6935075567       10.7306904531  MEMB      26              0.0000000000
      3546        26  DOPC      H4X            22.2856160660        3.3877436355       11.0711725848  MEMB      26              0.0000000000
      3547        26  DOPC      H4Y            21.3394585641        4.7303793584       10.3321750437  MEMB      26              0.0000000000
      3548        26  DOPC      C35            20.7905168004        2.7512920744        9.6107050905  MEMB      26              0.0000000000
      3549        26  DOPC      H5X            19.7651461075        3.0430026123        9.2918128227  MEMB      26              0.0000000000
      3550        26  DOPC      H5Y            20.7270243054        1.7280460219       10.0490676071  MEMB      26              0.0000000000
      3551        26  DOPC      C36            21.6999860303        2.6878824284        8.3697293334  MEMB      26              0.0000000000
      3552        26  DOPC      H6X            22.7513147938        2.5311844016        8.6939058299  MEMB      26              0.0000000000
      3553        26  DOPC      H6Y            21.3999023890        1.7961959810        7.7693112477  MEMB      26              0.0000000000
      3554        26  DOPC      C37            21.5995173347        3.9193722462        7.4500658659  MEMB      26              0.0000000000
      3555        26  DOPC      H7X            20.5189169455        4.1419621736        7.2872063179  MEMB      26              0.0000000000
      3556        26  DOPC      H7Y            22.0475005915        4.8053201710        7.9525374171  MEMB      26              0.0000000000
      3557        26  DOPC      C38            22.2439995973        3.7117921957        6.0601595970  MEMB      26              0.0000000000
      3558        26  DOPC      H8X            22.0270261666        4.6202539865        5.4515642757  MEMB      26              0.0000000000
      3559        26  DOPC      H8Y            21.7206906424        2.8670297519        5.5563349343  MEMB      26              0.0000000000
      3560        26  DOPC      C39            23.7258682058        3.4196817754        6.1097211603  MEMB      26              0.0000000000
      3561        26  DOPC      H9X            24.0372935277        2.6825409033        6.8672414785  MEMB      26              0.0000000000
      3562        26  DOPC      C310           24.6707888626        3.9494148096        5.3135910016  MEMB      26              0.0000000000
      3563        26  DOPC      H10X           25.7226521027        3.6578448552        5.4686094175  MEMB      26              0.0000000000
      3564        26  DOPC      C311           24.4544253625        4.9451650024        4.2046797057  MEMB      26              0.0000000000
      3565        26  DOPC      H11X           25.4496749457        5.2853194428        3.8631468835  MEMB      26              0.0000000000
      3566        26  DOPC      H11Y           23.9471409709        5.8524637659        4.5993143940  MEMB      26              0.0000000000
      3567        26  DOPC      C312           23.6765590721        4.4382454947        2.9655358675  MEMB      26              0.0000000000
      3568        26  DOPC      H12X           23.6245707213        5.2680884625        2.2242469329  MEMB      26              0.0000000000
      3569        26  DOPC      H12Y           22.6391333041        4.1685331744        3.2478465695  MEMB      26              0.0000000000
      3570        26  DOPC      C313           24.3199205994        3.2284139211        2.2781178399  MEMB      26              0.0000000000
      3571        26  DOPC      H13X           25.3994144009        3.2924149641        2.4794086637  MEMB      26              0.0000000000
      3572        26  DOPC      H13Y           23.9623862984        2.2924388991        2.7483231437  MEMB      26              0.0000000000
      3573        26  DOPC      C314           24.1339677800        3.1757761028        0.7533481329  MEMB      26              0.0000000000
      3574        26  DOPC      H14X           23.0580070416        3.0942328153        0.5039464583  MEMB      26              0.0000000000
      3575        26  DOPC      H14Y           24.4979275594        4.1432062753        0.3441103722  MEMB      26              0.0000000000
      3576        26  DOPC      C315           24.9069473869        2.0100429356        0.1044560800  MEMB      26              0.0000000000
      3577        26  DOPC      H15X           24.7309873081        1.0870564548        0.7020735868  MEMB      26              0.0000000000
      3578        26  DOPC      H15Y           25.9932339047        2.2203350713        0.1222365393  MEMB      26              0.0000000000
      3579        26  DOPC      C316           24.6075292670        1.7172051070       -1.3680704530  MEMB      26              0.0000000000
      3580        26  DOPC      H16X           25.4951007462        1.2347336434       -1.8381617036  MEMB      26              0.0000000000
      3581        26  DOPC      H16Y           23.7725386954        0.9787188205       -1.4175796771  MEMB      26              0.0000000000
      3582        26  DOPC      C317           24.2284395960        2.9411221495       -2.2019016988  MEMB      26              0.0000000000
      3583        26  DOPC      H17X           24.1154040472        2.5529610398       -3.2368306542  MEMB      26              0.0000000000
      3584        26  DOPC      H17Y           23.2487243843        3.2927517698       -1.8189151274  MEMB      26              0.0000000000
      3585        26  DOPC      C318           25.1424860663        4.1607694049       -2.2642513689  MEMB      26              0.0000000000
      3586        26  DOPC      H18X           24.5317934254        5.0814139148       -2.3978177416  MEMB      26              0.0000000000
      3587        26  DOPC      H18Y           25.7478865904        4.2716403149       -1.3426712745  MEMB      26              0.0000000000
      3588        26  DOPC      H18Z           25.8191324433        4.0811239068       -3.1347059721  MEMB      26              0.0000000000
      3589        27  DOPC      N              10.7806506742      -19.8190909998       20.7577502022  MEMB      27              0.0000000000
      3590        27  DOPC      C12            11.1464341195      -21.3016865276       20.6143143525  MEMB      27              0.0000000000
      3591        27  DOPC      H12A           11.1722579493      -21.7683922999       21.5870169027  MEMB      27              0.0000000000
      3592        27  DOPC      H12B           12.1633829278      -21.3460265629       20.2146071969  MEMB      27              0.0000000000
      3593        27  DOPC      C13            11.2153003738      -19.2730175584       22.0823787313  MEMB      27              0.0000000000
      3594        27  DOPC      H13A           10.8984403024      -18.2335833282       22.2045011694  MEMB      27              0.0000000000
      3595        27  DOPC      H13B           10.7817605178      -19.8191012276       22.9138932129  MEMB      27              0.0000000000
      3596        27  DOPC      H13C           12.2929511105      -19.2808660052       22.1987588935  MEMB      27              0.0000000000
      3597        27  DOPC      C14             9.3169580921      -19.5808207810       20.6256812960  MEMB      27              0.0000000000
      3598        27  DOPC      H14A            9.0204421460      -19.8009498413       19.6026067920  MEMB      27              0.0000000000
      3599        27  DOPC      H14B            8.7480640910      -20.1974581561       21.3024318650  MEMB      27              0.0000000000
      3600        27  DOPC      H14C            9.0920992854      -18.5400007807       20.8461838892  MEMB      27              0.0000000000
      3601        27  DOPC      C15            11.4637748366      -19.0387540821       19.6774682590  MEMB      27              0.0000000000
      3602        27  DOPC      H15A           11.1300393418      -18.0137638272       19.6801874376  MEMB      27              0.0000000000
      3603        27  DOPC      H15B           11.2849425349      -19.4862750517       18.6953673985  MEMB      27              0.0000000000
      3604        27  DOPC      H15C           12.5358274598      -19.0639518659       19.7968315857  MEMB      27              0.0000000000
      3605        27  DOPC      C11            10.3373569776      -22.1972781006       19.6347278538  MEMB      27              0.0000000000
      3606        27  DOPC      H11A           10.6779472430      -23.2586681495       19.7072444061  MEMB      27              0.0000000000
      3607        27  DOPC      H11B            9.2615117155      -22.2065652235       19.9168456235  MEMB      27              0.0000000000
      3608        27  DOPC      P              11.8240990888      -21.7669288285       17.4816547934  MEMB      27              0.0000000000
      3609        27  DOPC      O13            11.9661382312      -23.0701778290       16.7937048966  MEMB      27              0.0000000000
      3610        27  DOPC      O14            12.9249505154      -21.3289224186       18.3815853061  MEMB      27              0.0000000000
      3611        27  DOPC      O12            10.4460316200      -21.7328164773       18.2987954159  MEMB      27              0.0000000000
      3612        27  DOPC      O11            11.5658430906      -20.5819892023       16.4653066849  MEMB      27              0.0000000000
      3613        27  DOPC      C1             10.2554633347      -20.1550726470       16.1198789846  MEMB      27              0.0000000000
      3614        27  DOPC      HA              9.9476292316      -19.2798955102       16.7389742523  MEMB      27              0.0000000000
      3615        27  DOPC      HB              9.4930748062      -20.9558191404       16.2793524136  MEMB      27              0.0000000000
      3616        27  DOPC      C2             10.2113435423      -19.7437117324       14.6263891555  MEMB      27              0.0000000000
      3617        27  DOPC      HS              9.1411632993      -19.5598036789       14.3876255825  MEMB      27              0.0000000000
      3618        27  DOPC      O21            10.7744677646      -20.7354060498       13.7367828859  MEMB      27              0.0000000000
      3619        27  DOPC      C21             9.9731576208      -21.7692536920       13.5402914872  MEMB      27              0.0000000000
      3620        27  DOPC      O22             8.9151269284      -21.9533645805       14.1129452228  MEMB      27              0.0000000000
      3621        27  DOPC      C22            10.5103117263      -22.6311887650       12.3675701924  MEMB      27              0.0000000000
      3622        27  DOPC      H2R            11.2993319883      -23.2964551562       12.7732751907  MEMB      27              0.0000000000
      3623        27  DOPC      H2S            10.9712611778      -21.9549403062       11.6232825429  MEMB      27              0.0000000000
      3624        27  DOPC      C3             10.9409562642      -18.4136570640       14.3483494722  MEMB      27              0.0000000000
      3625        27  DOPC      HX             12.0176167491      -18.5469399497       14.6091340436  MEMB      27              0.0000000000
      3626        27  DOPC      HY             10.5110000916      -17.6042058124       14.9784698559  MEMB      27              0.0000000000
      3627        27  DOPC      O31            10.7834373618      -18.1188530136       12.9502441899  MEMB      27              0.0000000000
      3628        27  DOPC      C31            11.4708856563      -17.0747975723       12.5459354227  MEMB      27              0.0000000000
      3629        27  DOPC      O32            12.0450562102      -16.2729418721       13.2565859924  MEMB      27              0.0000000000
      3630        27  DOPC      C32            11.5302668374      -17.0659859359       11.0188978463  MEMB      27              0.0000000000
      3631        27  DOPC      H2X            10.5066441605      -17.2318354200       10.6345180480  MEMB      27              0.0000000000
      3632        27  DOPC      H2Y            11.8541104654      -16.0530912418       10.7091531294  MEMB      27              0.0000000000
      3633        27  DOPC      C23             9.4113519632      -23.4927700263       11.6750839451  MEMB      27              0.0000000000
      3634        27  DOPC      H3R             8.4857533925      -22.9097220534       11.4889640434  MEMB      27              0.0000000000
      3635        27  DOPC      H3S             9.1334368316      -24.2946009891       12.3990443319  MEMB      27              0.0000000000
      3636        27  DOPC      C24             9.8126761396      -24.2175145744       10.3718410435  MEMB      27              0.0000000000
      3637        27  DOPC      H4R             8.9421330077      -24.8630228899       10.1020793981  MEMB      27              0.0000000000
      3638        27  DOPC      H4S            10.6858234814      -24.8764138626       10.5825644537  MEMB      27              0.0000000000
      3639        27  DOPC      C25            10.1252442498      -23.4164975504        9.0969540607  MEMB      27              0.0000000000
      3640        27  DOPC      H5R            11.1265193882      -22.9443039087        9.1983591555  MEMB      27              0.0000000000
      3641        27  DOPC      H5S             9.3739387154      -22.6145037214        8.9420037530  MEMB      27              0.0000000000
      3642        27  DOPC      C26            10.1077917262      -24.3667555361        7.8752089817  MEMB      27              0.0000000000
      3643        27  DOPC      H6R             9.0597065677      -24.6896016865        7.6891992390  MEMB      27              0.0000000000
      3644        27  DOPC      H6S            10.6760645912      -25.2854952160        8.1439176944  MEMB      27              0.0000000000
      3645        27  DOPC      C27            10.6963966922      -23.7932945674        6.5724347563  MEMB      27              0.0000000000
      3646        27  DOPC      H7R            10.9536938134      -22.7261901242        6.7236854068  MEMB      27              0.0000000000
      3647        27  DOPC      H7S             9.9194615342      -23.8232410770        5.7750353924  MEMB      27              0.0000000000
      3648        27  DOPC      C28            11.9449130921      -24.5484475224        6.0680537026  MEMB      27              0.0000000000
      3649        27  DOPC      H8R            12.2620395718      -24.0945827368        5.1005907916  MEMB      27              0.0000000000
      3650        27  DOPC      H8S            11.6652787350      -25.6008676189        5.8367740068  MEMB      27              0.0000000000
      3651        27  DOPC      C29            13.0657611509      -24.5111265860        7.0798998311  MEMB      27              0.0000000000
      3652        27  DOPC      H9R            13.1036858680      -25.3727734465        7.7674963806  MEMB      27              0.0000000000
      3653        27  DOPC      C210           13.9684345498      -23.5219360450        7.2221879409  MEMB      27              0.0000000000
      3654        27  DOPC      H10R           14.7631259695      -23.6299773202        7.9742851201  MEMB      27              0.0000000000
      3655        27  DOPC      C211           14.0410980992      -22.2585790696        6.4014020966  MEMB      27              0.0000000000
      3656        27  DOPC      H11R           13.1324294935      -22.1260200269        5.7721287977  MEMB      27              0.0000000000
      3657        27  DOPC      H11S           14.8924932788      -22.3713079889        5.7169068765  MEMB      27              0.0000000000
      3658        27  DOPC      C212           14.2721016128      -20.9289907098        7.1541087746  MEMB      27              0.0000000000
      3659        27  DOPC      H12R           15.2412318165      -20.8827976263        7.6680632770  MEMB      27              0.0000000000
      3660        27  DOPC      H12S           13.5722992548      -20.8770594485        7.9960123315  MEMB      27              0.0000000000
      3661        27  DOPC      C213           14.1813009940      -19.6939639895        6.2310998721  MEMB      27              0.0000000000
      3662        27  DOPC      H13R           13.9461545676      -18.7784322073        6.8187277778  MEMB      27              0.0000000000
      3663        27  DOPC      H13S           13.3635539674      -19.8453236488        5.4930065305  MEMB      27              0.0000000000
      3664        27  DOPC      C214           15.5070543695      -19.4300316700        5.5309483608  MEMB      27              0.0000000000
      3665        27  DOPC      H14R           16.0765641070      -20.3611072100        5.6922640818  MEMB      27              0.0000000000
      3666        27  DOPC      H14S           16.0554967519      -18.5935620129        6.0156982914  MEMB      27              0.0000000000
      3667        27  DOPC      C215           15.4178896056      -19.2634958905        4.0245677506  MEMB      27              0.0000000000
      3668        27  DOPC      H15R           14.6092119761      -19.9179408964        3.6258841491  MEMB      27              0.0000000000
      3669        27  DOPC      H15S           16.3754697692      -19.5686865933        3.5452562723  MEMB      27              0.0000000000
      3670        27  DOPC      C216           15.1708192752      -17.8379667919        3.6264089063  MEMB      27              0.0000000000
      3671        27  DOPC      H16R           16.1029062423      -17.2455644977        3.7827630464  MEMB      27              0.0000000000
      3672        27  DOPC      H16S           14.3687168221      -17.4293049850        4.2767641860  MEMB      27              0.0000000000
      3673        27  DOPC      C217           14.7008924704      -17.7652030438        2.1871083599  MEMB      27              0.0000000000
      3674        27  DOPC      H17R           14.9663269722      -18.7200495269        1.6912452322  MEMB      27              0.0000000000
      3675        27  DOPC      H17S           15.2153377789      -16.9253048362        1.6667119803  MEMB      27              0.0000000000
      3676        27  DOPC      C218           13.1906368002      -17.6164612612        2.1096924780  MEMB      27              0.0000000000
      3677        27  DOPC      H18R           12.8693640067      -16.7538341209        2.7293139070  MEMB      27              0.0000000000
      3678        27  DOPC      H18S           12.6967582134      -18.5333429963        2.4963742645  MEMB      27              0.0000000000
      3679        27  DOPC      H18T           12.8477900798      -17.4441805548        1.0714105822  MEMB      27              0.0000000000
      3680        27  DOPC      C33            12.5548639459      -18.0867702960       10.4537726961  MEMB      27              0.0000000000
      3681        27  DOPC      H3X            13.4487959561      -18.1199638075       11.1176961505  MEMB      27              0.0000000000
      3682        27  DOPC      H3Y            12.9132325871      -17.7287813919        9.4611238192  MEMB      27              0.0000000000
      3683        27  DOPC      C34            11.9779577585      -19.4975868639       10.2592586745  MEMB      27              0.0000000000
      3684        27  DOPC      H4X            11.5621714013      -19.8399873417       11.2331487602  MEMB      27              0.0000000000
      3685        27  DOPC      H4Y            12.7488743272      -20.2296001997        9.9607582620  MEMB      27              0.0000000000
      3686        27  DOPC      C35            10.8893274937      -19.5680091581        9.1879997543  MEMB      27              0.0000000000
      3687        27  DOPC      H5X            10.4388096982      -18.5634940053        9.1034774679  MEMB      27              0.0000000000
      3688        27  DOPC      H5Y            10.1636371902      -20.3479037257        9.4858203981  MEMB      27              0.0000000000
      3689        27  DOPC      C36            11.3313034298      -20.0225903517        7.8130850520  MEMB      27              0.0000000000
      3690        27  DOPC      H6X            12.1998736841      -19.3991627482        7.5639195195  MEMB      27              0.0000000000
      3691        27  DOPC      H6Y            11.6136189124      -21.0966151561        7.8990229606  MEMB      27              0.0000000000
      3692        27  DOPC      C37            10.3399785543      -19.9016242428        6.6638618600  MEMB      27              0.0000000000
      3693        27  DOPC      H7X            10.6471834688      -20.6804019364        5.9235287314  MEMB      27              0.0000000000
      3694        27  DOPC      H7Y             9.3186955946      -20.1925379352        6.9821347669  MEMB      27              0.0000000000
      3695        27  DOPC      C38            10.3632451743      -18.5051329878        5.9983825231  MEMB      27              0.0000000000
      3696        27  DOPC      H8X            11.1327905432      -17.8674023893        6.4860645648  MEMB      27              0.0000000000
      3697        27  DOPC      H8Y             9.3880644877      -17.9970167173        6.1454693555  MEMB      27              0.0000000000
      3698        27  DOPC      C39            10.6319372799      -18.5993869983        4.5272043237  MEMB      27              0.0000000000
      3699        27  DOPC      H9X            11.5222158650      -18.0746112162        4.1527838577  MEMB      27              0.0000000000
      3700        27  DOPC      C310            9.8578365014      -19.2997678162        3.6892407659  MEMB      27              0.0000000000
      3701        27  DOPC      H10X           10.1631902896      -19.3788644278        2.6343271985  MEMB      27              0.0000000000
      3702        27  DOPC      C311            8.6247145165      -20.0761854297        4.0958786720  MEMB      27              0.0000000000
      3703        27  DOPC      H11X            8.2151009706      -19.7391861811        5.0754116928  MEMB      27              0.0000000000
      3704        27  DOPC      H11Y            8.8900081063      -21.1493959301        4.2232846613  MEMB      27              0.0000000000
      3705        27  DOPC      C312            7.4706855584      -19.9737856446        3.0887894251  MEMB      27              0.0000000000
      3706        27  DOPC      H12X            6.9803435994      -18.9798604464        3.1865460835  MEMB      27              0.0000000000
      3707        27  DOPC      H12Y            6.7182871046      -20.7503711171        3.3522859739  MEMB      27              0.0000000000
      3708        27  DOPC      C313            7.8976428254      -20.1740610220        1.6357264402  MEMB      27              0.0000000000
      3709        27  DOPC      H13X            7.0002261397      -20.1549087032        0.9900889738  MEMB      27              0.0000000000
      3710        27  DOPC      H13Y            8.5130098160      -19.3079808143        1.3109327792  MEMB      27              0.0000000000
      3711        27  DOPC      C314            8.6774089463      -21.4743516131        1.4253836441  MEMB      27              0.0000000000
      3712        27  DOPC      H14X            9.4209783046      -21.6134913192        2.2287479920  MEMB      27              0.0000000000
      3713        27  DOPC      H14Y            7.9912693223      -22.3412238050        1.5259146583  MEMB      27              0.0000000000
      3714        27  DOPC      C315            9.3792544065      -21.5003960477        0.0675025160  MEMB      27              0.0000000000
      3715        27  DOPC      H15X            8.7838334114      -20.9377643714       -0.6845409890  MEMB      27              0.0000000000
      3716        27  DOPC      H15Y            9.4506644001      -22.5633084586       -0.2588119319  MEMB      27              0.0000000000
      3717        27  DOPC      C316           10.7854082447      -20.9359240363        0.1077611963  MEMB      27              0.0000000000
      3718        27  DOPC      H16X           11.1819644871      -20.9146368065       -0.9356870757  MEMB      27              0.0000000000
      3719        27  DOPC      H16Y           10.7815334623      -19.8863810982        0.4750829066  MEMB      27              0.0000000000
      3720        27  DOPC      C317           11.6612368504      -21.8299553517        0.9798119011  MEMB      27              0.0000000000
      3721        27  DOPC      H17X           11.3723498274      -21.8023509390        2.0500847662  MEMB      27              0.0000000000
      3722        27  DOPC      H17Y           11.5545209135      -22.8789227261        0.6106015852  MEMB      27              0.0000000000
      3723        27  DOPC      C318           13.1026153736      -21.4420910823        0.8612916911  MEMB      27              0.0000000000
      3724        27  DOPC      H18X           13.2620313086      -20.3600336220        1.0651910761  MEMB      27              0.0000000000
      3725        27  DOPC      H18Y           13.7595956110      -22.0337592576        1.5264790429  MEMB      27              0.0000000000
      3726        27  DOPC      H18Z           13.3433261816      -21.6728625506       -0.1983715121  MEMB      27              0.0000000000
      3727        28  DOPC      N              18.5682621385      -17.2201443240       18.6279589270  MEMB      28              0.0000000000
      3728        28  DOPC      C12            17.3070231960      -17.2955981148       19.4870313196  MEMB      28              0.0000000000
      3729        28  DOPC      H12A           17.5071933160      -17.9095858187       20.3539885057  MEMB      28              0.0000000000
      3730        28  DOPC      H12B           16.5173468136      -17.7505893749       18.8972432287  MEMB      28              0.0000000000
      3731        28  DOPC      C13            19.0256229864      -18.5640435138       18.2005511058  MEMB      28              0.0000000000
      3732        28  DOPC      H13A           19.5950438870      -18.5299412531       17.2665298407  MEMB      28              0.0000000000
      3733        28  DOPC      H13B           19.6565872607      -19.0338764080       18.9508243251  MEMB      28              0.0000000000
      3734        28  DOPC      H13C           18.1945871965      -19.2276130011       18.0075954795  MEMB      28              0.0000000000
      3735        28  DOPC      C14            19.6706672038      -16.5584228846       19.3982238617  MEMB      28              0.0000000000
      3736        28  DOPC      H14A           20.4802424270      -16.2164817029       18.7760368746  MEMB      28              0.0000000000
      3737        28  DOPC      H14B           19.3016409907      -15.6786374225       19.9205955315  MEMB      28              0.0000000000
      3738        28  DOPC      H14C           20.0730275821      -17.2126084506       20.1664066311  MEMB      28              0.0000000000
      3739        28  DOPC      C15            18.2781060795      -16.3921653593       17.4239497985  MEMB      28              0.0000000000
      3740        28  DOPC      H15A           17.8136837387      -16.9562305868       16.6224766596  MEMB      28              0.0000000000
      3741        28  DOPC      H15B           19.1703650712      -15.9240948620       17.0359245761  MEMB      28              0.0000000000
      3742        28  DOPC      H15C           17.6029615180      -15.5797074115       17.7083099630  MEMB      28              0.0000000000
      3743        28  DOPC      C11            16.7203273042      -15.9642679374       20.0322035815  MEMB      28              0.0000000000
      3744        28  DOPC      H11A           16.2829017985      -15.4052893443       19.1716796549  MEMB      28              0.0000000000
      3745        28  DOPC      H11B           15.8903081520      -16.1912706354       20.7361996419  MEMB      28              0.0000000000
      3746        28  DOPC      P              17.4563971826      -13.6314386739       20.9004167640  MEMB      28              0.0000000000
      3747        28  DOPC      O13            18.7965593569      -13.0022475574       21.0292894757  MEMB      28              0.0000000000
      3748        28  DOPC      O14            16.5215801608      -13.3984817270       22.0180177659  MEMB      28              0.0000000000
      3749        28  DOPC      O12            17.6933444207      -15.2024877393       20.7361358321  MEMB      28              0.0000000000
      3750        28  DOPC      O11            16.7231262753      -13.1404996796       19.5895263247  MEMB      28              0.0000000000
      3751        28  DOPC      C1             17.4149486869      -12.9018919061       18.3757782389  MEMB      28              0.0000000000
      3752        28  DOPC      HA             18.2579091893      -13.6129934870       18.2251260384  MEMB      28              0.0000000000
      3753        28  DOPC      HB             17.8252538603      -11.8787170239       18.4004451410  MEMB      28              0.0000000000
      3754        28  DOPC      C2             16.4503025419      -13.0245175143       17.1723977364  MEMB      28              0.0000000000
      3755        28  DOPC      HS             15.4813032676      -12.5383186264       17.4547935180  MEMB      28              0.0000000000
      3756        28  DOPC      O21            16.2755125730      -14.4296787648       16.9311250913  MEMB      28              0.0000000000
      3757        28  DOPC      C21            15.1027562603      -14.8086759412       16.4356280413  MEMB      28              0.0000000000
      3758        28  DOPC      O22            14.1920823869      -14.0897557162       16.1091337739  MEMB      28              0.0000000000
      3759        28  DOPC      C22            15.1093575355      -16.3263326111       16.2183810074  MEMB      28              0.0000000000
      3760        28  DOPC      H2R            14.0734314063      -16.6635463879       16.4465762047  MEMB      28              0.0000000000
      3761        28  DOPC      H2S            15.7736233493      -16.8096941566       16.9468854446  MEMB      28              0.0000000000
      3762        28  DOPC      C3             16.9989165524      -12.2757861537       15.9068784556  MEMB      28              0.0000000000
      3763        28  DOPC      HX             17.0160720260      -11.1833850847       16.1245050192  MEMB      28              0.0000000000
      3764        28  DOPC      HY             16.2423221622      -12.3893960539       15.1101204604  MEMB      28              0.0000000000
      3765        28  DOPC      O31            18.2666996992      -12.7700764842       15.3937410555  MEMB      28              0.0000000000
      3766        28  DOPC      C31            19.3573714256      -12.0741558921       15.7249086348  MEMB      28              0.0000000000
      3767        28  DOPC      O32            19.3971574576      -11.1897246464       16.5566037369  MEMB      28              0.0000000000
      3768        28  DOPC      C32            20.5969949020      -12.6557047692       15.0604228067  MEMB      28              0.0000000000
      3769        28  DOPC      H2X            20.9649579100      -13.3900400503       15.7940378084  MEMB      28              0.0000000000
      3770        28  DOPC      H2Y            20.3401311423      -13.1962921515       14.1326678403  MEMB      28              0.0000000000
      3771        28  DOPC      C23            15.4683762118      -16.7407142917       14.7585117467  MEMB      28              0.0000000000
      3772        28  DOPC      H3R            14.5319049397      -16.5570050725       14.1680129849  MEMB      28              0.0000000000
      3773        28  DOPC      H3S            15.6580213150      -17.8338173976       14.7034230445  MEMB      28              0.0000000000
      3774        28  DOPC      C24            16.5898816914      -15.9297601137       14.0521160080  MEMB      28              0.0000000000
      3775        28  DOPC      H4R            16.7434990803      -14.9537373277       14.5533531150  MEMB      28              0.0000000000
      3776        28  DOPC      H4S            16.1710548247      -15.6950701419       13.0487777841  MEMB      28              0.0000000000
      3777        28  DOPC      C25            17.9876734320      -16.5521817581       13.7907095845  MEMB      28              0.0000000000
      3778        28  DOPC      H5R            18.3352660889      -17.1574704394       14.6497513196  MEMB      28              0.0000000000
      3779        28  DOPC      H5S            18.7053538274      -15.7081503377       13.6591774556  MEMB      28              0.0000000000
      3780        28  DOPC      C26            18.0537359849      -17.3916900618       12.4993337170  MEMB      28              0.0000000000
      3781        28  DOPC      H6R            17.3529869195      -16.9719777069       11.7445190237  MEMB      28              0.0000000000
      3782        28  DOPC      H6S            17.6819039749      -18.4018844181       12.7781202871  MEMB      28              0.0000000000
      3783        28  DOPC      C27            19.4327808928      -17.5576460094       11.8062180476  MEMB      28              0.0000000000
      3784        28  DOPC      H7R            19.3876947501      -18.5167002627       11.2474063869  MEMB      28              0.0000000000
      3785        28  DOPC      H7S            20.2343417909      -17.6751180174       12.5648490003  MEMB      28              0.0000000000
      3786        28  DOPC      C28            19.7863154749      -16.4488627683       10.7704719925  MEMB      28              0.0000000000
      3787        28  DOPC      H8R            20.2966708516      -15.6392008278       11.3379694886  MEMB      28              0.0000000000
      3788        28  DOPC      H8S            18.8340099658      -16.0200939184       10.4024311049  MEMB      28              0.0000000000
      3789        28  DOPC      C29            20.6665403751      -16.8377803490        9.5959416684  MEMB      28              0.0000000000
      3790        28  DOPC      H9R            21.5101144492      -17.4973013786        9.8577706013  MEMB      28              0.0000000000
      3791        28  DOPC      C210           20.5476773061      -16.4445043592        8.3060366350  MEMB      28              0.0000000000
      3792        28  DOPC      H10R           21.3203612851      -16.7582347115        7.5842632646  MEMB      28              0.0000000000
      3793        28  DOPC      C211           19.5224755699      -15.5246819664        7.6882377805  MEMB      28              0.0000000000
      3794        28  DOPC      H11R           18.6903340939      -15.3029066823        8.3799304073  MEMB      28              0.0000000000
      3795        28  DOPC      H11S           19.0607378502      -16.0265013033        6.8096485396  MEMB      28              0.0000000000
      3796        28  DOPC      C212           20.1799029609      -14.2018107032        7.2389556715  MEMB      28              0.0000000000
      3797        28  DOPC      H12R           21.1068386606      -14.4280631553        6.6621999189  MEMB      28              0.0000000000
      3798        28  DOPC      H12S           20.4784079596      -13.6058211472        8.1333987850  MEMB      28              0.0000000000
      3799        28  DOPC      C213           19.3043671091      -13.3368311799        6.3162653377  MEMB      28              0.0000000000
      3800        28  DOPC      H13R           19.9130978255      -12.4625975121        5.9904701504  MEMB      28              0.0000000000
      3801        28  DOPC      H13S           18.4280366129      -12.9591847879        6.8790555652  MEMB      28              0.0000000000
      3802        28  DOPC      C214           18.8015842526      -14.0915293354        5.0822940536  MEMB      28              0.0000000000
      3803        28  DOPC      H14R           17.8127026231      -14.5609604680        5.2861014437  MEMB      28              0.0000000000
      3804        28  DOPC      H14S           19.5185932147      -14.9307572874        4.9106065565  MEMB      28              0.0000000000
      3805        28  DOPC      C215           18.7135256252      -13.2758135430        3.7742371110  MEMB      28              0.0000000000
      3806        28  DOPC      H15R           19.4831698417      -12.4713158517        3.7357377097  MEMB      28              0.0000000000
      3807        28  DOPC      H15S           17.7074368417      -12.8229741208        3.6989599507  MEMB      28              0.0000000000
      3808        28  DOPC      C216           18.9571133435      -14.2573045920        2.6391462694  MEMB      28              0.0000000000
      3809        28  DOPC      H16R           18.4034104428      -15.1887011830        2.9074385327  MEMB      28              0.0000000000
      3810        28  DOPC      H16S           20.0330806030      -14.4605450226        2.6766198169  MEMB      28              0.0000000000
      3811        28  DOPC      C217           18.6733287171      -13.9330338733        1.1806676738  MEMB      28              0.0000000000
      3812        28  DOPC      H17R           19.6235010922      -13.6294615501        0.6780282031  MEMB      28              0.0000000000
      3813        28  DOPC      H17S           17.9747690853      -13.0818202781        1.0861063888  MEMB      28              0.0000000000
      3814        28  DOPC      C218           18.0998256812      -15.1941971574        0.5186156233  MEMB      28              0.0000000000
      3815        28  DOPC      H18R           18.9143077368      -15.9228228256        0.3259169010  MEMB      28              0.0000000000
      3816        28  DOPC      H18S           17.5829154883      -14.9501833716       -0.4331474521  MEMB      28              0.0000000000
      3817        28  DOPC      H18T           17.3731867755      -15.7039442598        1.1860857419  MEMB      28              0.0000000000
      3818        28  DOPC      C33            21.7697543563      -11.6527149708       14.8885041945  MEMB      28              0.0000000000
      3819        28  DOPC      H3X            22.7082367539      -12.2465900613       14.8166575208  MEMB      28              0.0000000000
      3820        28  DOPC      H3Y            21.8827719131      -11.0144350855       15.7948327282  MEMB      28              0.0000000000
      3821        28  DOPC      C34            21.6799403783      -10.7393779645       13.6537905133  MEMB      28              0.0000000000
      3822        28  DOPC      H4X            22.6304081518      -10.1852519430       13.5152646050  MEMB      28              0.0000000000
      3823        28  DOPC      H4Y            20.9377833998       -9.9620208127       13.9099260045  MEMB      28              0.0000000000
      3824        28  DOPC      C35            21.3327683542      -11.4337908525       12.3168232391  MEMB      28              0.0000000000
      3825        28  DOPC      H5X            20.4524145953      -12.0983953346       12.4296981326  MEMB      28              0.0000000000
      3826        28  DOPC      H5Y            22.1611375374      -12.0852948781       11.9864578558  MEMB      28              0.0000000000
      3827        28  DOPC      C36            21.0518484299      -10.4618093993       11.1647790879  MEMB      28              0.0000000000
      3828        28  DOPC      H6X            22.0014068266       -9.9884069058       10.8284301278  MEMB      28              0.0000000000
      3829        28  DOPC      H6Y            20.6514993200      -11.0494311872       10.3040992064  MEMB      28              0.0000000000
      3830        28  DOPC      C37            20.0442345981       -9.3734770200       11.5578385148  MEMB      28              0.0000000000
      3831        28  DOPC      H7X            20.5483921062       -8.6263141339       12.2058341825  MEMB      28              0.0000000000
      3832        28  DOPC      H7Y            19.7539063165       -8.8363353395       10.6332843091  MEMB      28              0.0000000000
      3833        28  DOPC      C38            18.8223509273       -9.9571981987       12.2994279195  MEMB      28              0.0000000000
      3834        28  DOPC      H8X            19.0430532896      -10.1250150617       13.3679065483  MEMB      28              0.0000000000
      3835        28  DOPC      H8Y            18.6403306138      -10.9771686262       11.8916372733  MEMB      28              0.0000000000
      3836        28  DOPC      C39            17.5998077948       -9.0967735376       12.2049844489  MEMB      28              0.0000000000
      3837        28  DOPC      H9X            17.4640752232       -8.3267451557       12.9761647747  MEMB      28              0.0000000000
      3838        28  DOPC      C310           16.7164732692       -9.2106643590       11.2138462584  MEMB      28              0.0000000000
      3839        28  DOPC      H10X           15.8517076135       -8.5488762308       11.1637895155  MEMB      28              0.0000000000
      3840        28  DOPC      C311           16.8146254072      -10.1800471299       10.0870024891  MEMB      28              0.0000000000
      3841        28  DOPC      H11X           15.8046076489      -10.5455652719        9.7975562069  MEMB      28              0.0000000000
      3842        28  DOPC      H11Y           17.4171936616      -11.0852113871       10.3176210212  MEMB      28              0.0000000000
      3843        28  DOPC      C312           17.5041979449       -9.5220765027        8.9103530402  MEMB      28              0.0000000000
      3844        28  DOPC      H12X           18.5886959402       -9.3718250907        9.0964010656  MEMB      28              0.0000000000
      3845        28  DOPC      H12Y           17.0458555782       -8.5431025503        8.6478067406  MEMB      28              0.0000000000
      3846        28  DOPC      C313           17.3544912350      -10.4889911243        7.7758918215  MEMB      28              0.0000000000
      3847        28  DOPC      H13X           17.6024093351      -11.5217214012        8.0971491690  MEMB      28              0.0000000000
      3848        28  DOPC      H13Y           16.2688189739      -10.5074813026        7.5195620669  MEMB      28              0.0000000000
      3849        28  DOPC      C314           18.2363070888      -10.1279893499        6.6028356337  MEMB      28              0.0000000000
      3850        28  DOPC      H14X           18.3538281828       -9.0232006717        6.5039183280  MEMB      28              0.0000000000
      3851        28  DOPC      H14Y           19.2511882688      -10.5546124456        6.7352482445  MEMB      28              0.0000000000
      3852        28  DOPC      C315           17.5048664702      -10.6766685691        5.4035723234  MEMB      28              0.0000000000
      3853        28  DOPC      H15X           17.1141971636      -11.6955034446        5.6323197052  MEMB      28              0.0000000000
      3854        28  DOPC      H15Y           18.1955910709      -10.7796528920        4.5506643106  MEMB      28              0.0000000000
      3855        28  DOPC      C316           16.3109884120       -9.7693594722        5.1545623266  MEMB      28              0.0000000000
      3856        28  DOPC      H16X           15.3797548900      -10.3300064215        5.4067480495  MEMB      28              0.0000000000
      3857        28  DOPC      H16Y           16.3326226152       -8.9243984250        5.8711114081  MEMB      28              0.0000000000
      3858        28  DOPC      C317           16.2074215345       -9.2839010105        3.7260823420  MEMB      28              0.0000000000
      3859        28  DOPC      H17X           15.6689424353      -10.1292470938        3.3077120715  MEMB      28              0.0000000000
      3860        28  DOPC      H17Y           15.5252336211       -8.4122336039        3.6260077245  MEMB      28              0.0000000000
      3861        28  DOPC      C318           17.4807419427       -9.0984394158        2.8986617561  MEMB      28              0.0000000000
      3862        28  DOPC      H18X           17.6413924634       -9.9604748249        2.2193803631  MEMB      28              0.0000000000
      3863        28  DOPC      H18Y           17.3787135502       -8.1955419087        2.2793622284  MEMB      28              0.0000000000
      3864        28  DOPC      H18Z           18.3814074003       -8.9902376556        3.5348297933  MEMB      28              0.0000000000
      3865        29  DOPC      N               2.8224166224       26.5989405761       20.1258438048  MEMB      29              0.0000000000
      3866        29  DOPC      C12             4.0910269030       25.7668845034       19.9242475362  MEMB      29              0.0000000000
      3867        29  DOPC      H12A            4.7824033414       25.9392345882       20.7410322664  MEMB      29              0.0000000000
      3868        29  DOPC      H12B            4.5759988843       26.1271100275       19.0216199351  MEMB      29              0.0000000000
      3869        29  DOPC      C13             1.9361630596       25.9682005737       21.1515862074  MEMB      29              0.0000000000
      3870        29  DOPC      H13A            2.3933107188       25.9675434229       22.1387943072  MEMB      29              0.0000000000
      3871        29  DOPC      H13B            0.9614483715       26.4303499156       21.2143586311  MEMB      29              0.0000000000
      3872        29  DOPC      H13C            1.7429973803       24.9320793575       20.8734488924  MEMB      29              0.0000000000
      3873        29  DOPC      C14             2.0461823812       26.6085661600       18.8455310103  MEMB      29              0.0000000000
      3874        29  DOPC      H14A            2.4855780401       27.2392723852       18.0938338437  MEMB      29              0.0000000000
      3875        29  DOPC      H14B            2.0079539824       25.5839538563       18.4498745827  MEMB      29              0.0000000000
      3876        29  DOPC      H14C            1.0240075559       26.9094401355       19.0085553474  MEMB      29              0.0000000000
      3877        29  DOPC      C15             3.1440196249       27.9994291091       20.5453436119  MEMB      29              0.0000000000
      3878        29  DOPC      H15A            3.9024013949       28.4443796232       19.9107569051  MEMB      29              0.0000000000
      3879        29  DOPC      H15B            3.5167303516       28.0354294112       21.5700423149  MEMB      29              0.0000000000
      3880        29  DOPC      H15C            2.2591924341       28.6200434144       20.5281622949  MEMB      29              0.0000000000
      3881        29  DOPC      C11             3.9179417606       24.2297779615       19.7487860795  MEMB      29              0.0000000000
      3882        29  DOPC      H11A            4.9048155786       23.7723294423       19.5324757707  MEMB      29              0.0000000000
      3883        29  DOPC      H11B            3.5167405212       23.7803123025       20.6862773961  MEMB      29              0.0000000000
      3884        29  DOPC      P               2.5617761018       22.6138146333       18.0894369491  MEMB      29              0.0000000000
      3885        29  DOPC      O13             1.2384977521       22.9156089253       17.5241029073  MEMB      29              0.0000000000
      3886        29  DOPC      O14             2.6412326314       21.5368991536       19.0967164451  MEMB      29              0.0000000000
      3887        29  DOPC      O12             3.0603509251       23.9845453444       18.6663295834  MEMB      29              0.0000000000
      3888        29  DOPC      O11             3.5957884985       22.2756417759       16.9513528571  MEMB      29              0.0000000000
      3889        29  DOPC      C1              4.4499889942       23.2260577036       16.3298650220  MEMB      29              0.0000000000
      3890        29  DOPC      HA              5.4630499286       22.7719221832       16.2627150083  MEMB      29              0.0000000000
      3891        29  DOPC      HB              4.5546405204       24.1791167920       16.8977960538  MEMB      29              0.0000000000
      3892        29  DOPC      C2              3.9716527591       23.5513952920       14.8951548553  MEMB      29              0.0000000000
      3893        29  DOPC      HS              3.0842510267       24.2228165079       15.0013499052  MEMB      29              0.0000000000
      3894        29  DOPC      O21             3.6570962691       22.3138521228       14.2383405641  MEMB      29              0.0000000000
      3895        29  DOPC      C21             2.6064162415       22.3768378173       13.4538842365  MEMB      29              0.0000000000
      3896        29  DOPC      O22             2.0257506415       23.3919759313       13.1037803046  MEMB      29              0.0000000000
      3897        29  DOPC      C22             2.2583605645       20.9602275863       13.0063535423  MEMB      29              0.0000000000
      3898        29  DOPC      H2R             1.2085031753       20.9728099732       12.6497675382  MEMB      29              0.0000000000
      3899        29  DOPC      H2S             2.3270283491       20.2846663656       13.8843060918  MEMB      29              0.0000000000
      3900        29  DOPC      C3              5.0896705558       24.2800200933       14.1168832363  MEMB      29              0.0000000000
      3901        29  DOPC      HX              5.9523176193       23.5768499410       14.0727805545  MEMB      29              0.0000000000
      3902        29  DOPC      HY              5.4247520621       25.1668683517       14.7026504621  MEMB      29              0.0000000000
      3903        29  DOPC      O31             4.7200592444       24.6129588462       12.7643176518  MEMB      29              0.0000000000
      3904        29  DOPC      C31             4.1059086529       25.7771998857       12.6103933268  MEMB      29              0.0000000000
      3905        29  DOPC      O32             3.8669362139       26.5843398277       13.4901325541  MEMB      29              0.0000000000
      3906        29  DOPC      C32             3.8667954352       25.9982332087       11.1191574008  MEMB      29              0.0000000000
      3907        29  DOPC      H2X             4.5785245633       25.3602126393       10.5549988816  MEMB      29              0.0000000000
      3908        29  DOPC      H2Y             2.8374741733       25.6702064770       10.8742495978  MEMB      29              0.0000000000
      3909        29  DOPC      C23             3.2006270104       20.4937108151       11.8760423423  MEMB      29              0.0000000000
      3910        29  DOPC      H3R             3.0757021387       19.3981104986       11.7391523231  MEMB      29              0.0000000000
      3911        29  DOPC      H3S             4.2679006610       20.6656188626       12.1431847773  MEMB      29              0.0000000000
      3912        29  DOPC      C24             2.8496281366       21.2047079063       10.5666392489  MEMB      29              0.0000000000
      3913        29  DOPC      H4R             3.2272535495       22.2509808436       10.6105846354  MEMB      29              0.0000000000
      3914        29  DOPC      H4S             1.7404157773       21.2564746828       10.4722903684  MEMB      29              0.0000000000
      3915        29  DOPC      C25             3.3804510622       20.5127442031        9.3057772642  MEMB      29              0.0000000000
      3916        29  DOPC      H5R             2.9316457585       19.4955373352        9.2465481341  MEMB      29              0.0000000000
      3917        29  DOPC      H5S             4.4815939568       20.3859927379        9.3775663627  MEMB      29              0.0000000000
      3918        29  DOPC      C26             3.0069614463       21.3049080719        8.0442550848  MEMB      29              0.0000000000
      3919        29  DOPC      H6R             1.9304785446       21.5893979980        8.1135200307  MEMB      29              0.0000000000
      3920        29  DOPC      H6S             3.1139945807       20.6559474819        7.1466814640  MEMB      29              0.0000000000
      3921        29  DOPC      C27             3.8371245696       22.5877747208        7.8359910882  MEMB      29              0.0000000000
      3922        29  DOPC      H7R             3.6242080753       23.2955426737        8.6685420290  MEMB      29              0.0000000000
      3923        29  DOPC      H7S             3.4968721322       23.0835375480        6.8997746414  MEMB      29              0.0000000000
      3924        29  DOPC      C28             5.3659219538       22.3857874415        7.7593909341  MEMB      29              0.0000000000
      3925        29  DOPC      H8R             5.7339727379       22.0825344657        8.7643759473  MEMB      29              0.0000000000
      3926        29  DOPC      H8S             5.8114373939       23.3847437892        7.5571719466  MEMB      29              0.0000000000
      3927        29  DOPC      C29             5.7847471637       21.3512440413        6.7426440748  MEMB      29              0.0000000000
      3928        29  DOPC      H9R             5.3757539123       20.3462443584        6.9297170345  MEMB      29              0.0000000000
      3929        29  DOPC      C210            6.5644545535       21.5271470668        5.6597635371  MEMB      29              0.0000000000
      3930        29  DOPC      H10R            6.7322208877       20.6724538478        4.9864965843  MEMB      29              0.0000000000
      3931        29  DOPC      C211            7.2035439797       22.8144876511        5.2063225683  MEMB      29              0.0000000000
      3932        29  DOPC      H11R            8.2887060066       22.6573408618        5.0080930472  MEMB      29              0.0000000000
      3933        29  DOPC      H11S            7.1338766134       23.6109695269        5.9755160101  MEMB      29              0.0000000000
      3934        29  DOPC      C212            6.5067383749       23.3499791277        3.9418988333  MEMB      29              0.0000000000
      3935        29  DOPC      H12R            6.6043579516       22.6188603442        3.1101680187  MEMB      29              0.0000000000
      3936        29  DOPC      H12S            7.0151959109       24.2867468009        3.6378475059  MEMB      29              0.0000000000
      3937        29  DOPC      C213            5.0178254604       23.6703345241        4.1477290094  MEMB      29              0.0000000000
      3938        29  DOPC      H13R            4.9115951484       24.5287073426        4.8442383528  MEMB      29              0.0000000000
      3939        29  DOPC      H13S            4.5430799445       22.7909844583        4.6340853778  MEMB      29              0.0000000000
      3940        29  DOPC      C214            4.2364979479       23.9148160980        2.8486010806  MEMB      29              0.0000000000
      3941        29  DOPC      H14R            3.1762683469       24.1566915869        3.0614040305  MEMB      29              0.0000000000
      3942        29  DOPC      H14S            4.2318853016       22.9706067186        2.2855539211  MEMB      29              0.0000000000
      3943        29  DOPC      C215            4.8625618661       24.8750869663        1.8472998500  MEMB      29              0.0000000000
      3944        29  DOPC      H15R            5.8274168516       24.4130390657        1.5351682347  MEMB      29              0.0000000000
      3945        29  DOPC      H15S            5.0726605674       25.8642225915        2.3068254681  MEMB      29              0.0000000000
      3946        29  DOPC      C216            4.0126296613       25.0176934018        0.5786921778  MEMB      29              0.0000000000
      3947        29  DOPC      H16R            3.6179618364       24.0305770896        0.2458183192  MEMB      29              0.0000000000
      3948        29  DOPC      H16S            4.6807335448       25.3742592150       -0.2317150588  MEMB      29              0.0000000000
      3949        29  DOPC      C217            2.8687930071       26.0207537098        0.7477783164  MEMB      29              0.0000000000
      3950        29  DOPC      H17R            3.2087130949       26.8406360439        1.4213572606  MEMB      29              0.0000000000
      3951        29  DOPC      H17S            2.0148778270       25.5128096575        1.2527764028  MEMB      29              0.0000000000
      3952        29  DOPC      C218            2.4213811535       26.6394167485       -0.5772718861  MEMB      29              0.0000000000
      3953        29  DOPC      H18R            1.6018400793       27.3705132248       -0.4042903313  MEMB      29              0.0000000000
      3954        29  DOPC      H18S            2.0530395790       25.8488662760       -1.2676549345  MEMB      29              0.0000000000
      3955        29  DOPC      H18T            3.2567285269       27.1741460795       -1.0715019299  MEMB      29              0.0000000000
      3956        29  DOPC      C33             4.0863171847       27.4720484259       10.7227874307  MEMB      29              0.0000000000
      3957        29  DOPC      H3X             4.8937035016       27.9339370505       11.3385195006  MEMB      29              0.0000000000
      3958        29  DOPC      H3Y             3.1525722283       28.0276943623       10.9548311086  MEMB      29              0.0000000000
      3959        29  DOPC      C34             4.4923013692       27.6478261014        9.2492914643  MEMB      29              0.0000000000
      3960        29  DOPC      H4X             5.4809503003       27.1932299814        9.0917347378  MEMB      29              0.0000000000
      3961        29  DOPC      H4Y             4.6393699451       28.7169192188        9.0027360124  MEMB      29              0.0000000000
      3962        29  DOPC      C35             3.5368270538       27.0008194201        8.2500301734  MEMB      29              0.0000000000
      3963        29  DOPC      H5X             3.5363673863       25.9022468376        8.4275066585  MEMB      29              0.0000000000
      3964        29  DOPC      H5Y             3.9174433759       27.1679017606        7.2157568380  MEMB      29              0.0000000000
      3965        29  DOPC      C36             2.1099612218       27.5381193568        8.3441389967  MEMB      29              0.0000000000
      3966        29  DOPC      H6X             1.7077242356       27.4342665879        9.3762318668  MEMB      29              0.0000000000
      3967        29  DOPC      H6Y             2.0883422082       28.6219072211        8.0894628079  MEMB      29              0.0000000000
      3968        29  DOPC      C37             1.1840819653       26.7883229823        7.3943963858  MEMB      29              0.0000000000
      3969        29  DOPC      H7X             0.2257821655       27.3415078955        7.3972331825  MEMB      29              0.0000000000
      3970        29  DOPC      H7Y             1.5886324387       26.8336060848        6.3583962244  MEMB      29              0.0000000000
      3971        29  DOPC      C38             0.9577497579       25.3297075973        7.8209009370  MEMB      29              0.0000000000
      3972        29  DOPC      H8X             0.7419283342       25.2803527844        8.9100145120  MEMB      29              0.0000000000
      3973        29  DOPC      H8Y             1.8862289307       24.7433130470        7.6474640044  MEMB      29              0.0000000000
      3974        29  DOPC      C39            -0.1967100453       24.7867241624        7.0304655370  MEMB      29              0.0000000000
      3975        29  DOPC      H9X            -1.1759541858       24.8069746217        7.5285592617  MEMB      29              0.0000000000
      3976        29  DOPC      C310           -0.1114572637       24.2723857995        5.8035033042  MEMB      29              0.0000000000
      3977        29  DOPC      H10X           -1.0279907320       23.9315146397        5.2996512710  MEMB      29              0.0000000000
      3978        29  DOPC      C311            1.1625671535       24.1443247657        5.0187826848  MEMB      29              0.0000000000
      3979        29  DOPC      H11X            2.0245110115       24.6813489647        5.4704219448  MEMB      29              0.0000000000
      3980        29  DOPC      H11Y            1.0401600414       24.5376203837        3.9842449451  MEMB      29              0.0000000000
      3981        29  DOPC      C312            1.4636327675       22.6459821824        4.9832629950  MEMB      29              0.0000000000
      3982        29  DOPC      H12X            1.2700683375       22.1463479568        5.9589081680  MEMB      29              0.0000000000
      3983        29  DOPC      H12Y            2.5372829986       22.4759939335        4.7626932107  MEMB      29              0.0000000000
      3984        29  DOPC      C313            0.6505390037       22.0025009362        3.8751122033  MEMB      29              0.0000000000
      3985        29  DOPC      H13X           -0.1264397019       22.7090432392        3.5015799063  MEMB      29              0.0000000000
      3986        29  DOPC      H13Y            1.3353987913       21.8659924781        3.0273149111  MEMB      29              0.0000000000
      3987        29  DOPC      C314           -0.0650352708       20.7155931574        4.2586962210  MEMB      29              0.0000000000
      3988        29  DOPC      H14X           -0.7104816473       20.8384901662        5.1454982907  MEMB      29              0.0000000000
      3989        29  DOPC      H14Y           -0.7209031223       20.5296580854        3.3780619108  MEMB      29              0.0000000000
      3990        29  DOPC      C315            0.8094676486       19.4854347476        4.4580937969  MEMB      29              0.0000000000
      3991        29  DOPC      H15X            1.0141652766       19.2894528478        5.5319687591  MEMB      29              0.0000000000
      3992        29  DOPC      H15Y            1.7915680290       19.6780804154        4.0125876486  MEMB      29              0.0000000000
      3993        29  DOPC      C316            0.0820311040       18.3083766039        3.8159576471  MEMB      29              0.0000000000
      3994        29  DOPC      H16X           -0.5978364019       17.9560824477        4.5995424190  MEMB      29              0.0000000000
      3995        29  DOPC      H16Y           -0.5340481469       18.6109527556        2.9376963592  MEMB      29              0.0000000000
      3996        29  DOPC      C317            0.8866235699       17.1052599592        3.3802044449  MEMB      29              0.0000000000
      3997        29  DOPC      H17X            1.6712342799       16.8496452666        4.1147270856  MEMB      29              0.0000000000
      3998        29  DOPC      H17Y            0.1609504298       16.2557538584        3.3623223069  MEMB      29              0.0000000000
      3999        29  DOPC      C318            1.4266659479       17.2343032309        1.9696302435  MEMB      29              0.0000000000
      4000        29  DOPC      H18X            0.7022672935       17.7925822105        1.3358469169  MEMB      29              0.0000000000
      4001        29  DOPC      H18Y            2.4069554473       17.7280655844        1.9122658365  MEMB      29              0.0000000000
      4002        29  DOPC      H18Z            1.5838074384       16.2197418999        1.5693659215  MEMB      29              0.0000000000
      4003        30  DOPC      N              22.8694295368        7.5978876430       19.9021877232  MEMB      30              0.0000000000
      4004        30  DOPC      C12            22.4462710882        9.0522675589       20.0946889496  MEMB      30              0.0000000000
      4005        30  DOPC      H12A           22.0471375142        9.1965800817       21.0873758156  MEMB      30              0.0000000000
      4006        30  DOPC      H12B           21.6804970632        9.3151086107       19.3670346681  MEMB      30              0.0000000000
      4007        30  DOPC      C13            23.2952234117        7.4545780868       18.4672116898  MEMB      30              0.0000000000
      4008        30  DOPC      H13A           22.4738678571        7.6615044321       17.7921139903  MEMB      30              0.0000000000
      4009        30  DOPC      H13B           24.0381340242        8.2338194029       18.2518461024  MEMB      30              0.0000000000
      4010        30  DOPC      H13C           23.7355985179        6.4895676278       18.2543405408  MEMB      30              0.0000000000
      4011        30  DOPC      C14            21.8067585965        6.5942830594       20.1945178226  MEMB      30              0.0000000000
      4012        30  DOPC      H14A           22.1977474337        5.5889154894       20.0163528092  MEMB      30              0.0000000000
      4013        30  DOPC      H14B           21.5037815256        6.6385040015       21.2377316539  MEMB      30              0.0000000000
      4014        30  DOPC      H14C           20.9428762611        6.7173441177       19.5580871352  MEMB      30              0.0000000000
      4015        30  DOPC      C15            24.0446228775        7.3099114746       20.7949050958  MEMB      30              0.0000000000
      4016        30  DOPC      H15A           23.8253209543        7.4196243498       21.8509229304  MEMB      30              0.0000000000
      4017        30  DOPC      H15B           24.8374471477        8.0161948815       20.5630542647  MEMB      30              0.0000000000
      4018        30  DOPC      H15C           24.4526981093        6.3215028280       20.6186442742  MEMB      30              0.0000000000
      4019        30  DOPC      C11            23.5536162065       10.1218957747       19.8799765748  MEMB      30              0.0000000000
      4020        30  DOPC      H11A           23.2153923744       11.0944767628       20.3148044517  MEMB      30              0.0000000000
      4021        30  DOPC      H11B           24.4670881245        9.8575692391       20.4446488696  MEMB      30              0.0000000000
      4022        30  DOPC      P              23.2495050961       11.3871647833       17.6275398273  MEMB      30              0.0000000000
      4023        30  DOPC      O13            23.6808525959       11.1601955716       16.2335251375  MEMB      30              0.0000000000
      4024        30  DOPC      O14            23.5375077425       12.7055424410       18.2414398158  MEMB      30              0.0000000000
      4025        30  DOPC      O12            23.9042161377       10.2354648445       18.5018783653  MEMB      30              0.0000000000
      4026        30  DOPC      O11            21.7023009623       10.9982431981       17.8084365142  MEMB      30              0.0000000000
      4027        30  DOPC      C1             20.7883084330       11.1205612945       16.7237855992  MEMB      30              0.0000000000
      4028        30  DOPC      HA             21.2591486610       10.9535575995       15.7243130880  MEMB      30              0.0000000000
      4029        30  DOPC      HB             20.4018517344       12.1664206353       16.7250888613  MEMB      30              0.0000000000
      4030        30  DOPC      C2             19.5666441712       10.1496442498       16.8571186130  MEMB      30              0.0000000000
      4031        30  DOPC      HS             19.3942662056        9.9447854520       17.9355571448  MEMB      30              0.0000000000
      4032        30  DOPC      O21            19.8048182996        8.9279794377       16.1165241224  MEMB      30              0.0000000000
      4033        30  DOPC      C21            18.9244415758        7.9401230614       16.2552643930  MEMB      30              0.0000000000
      4034        30  DOPC      O22            18.2692273298        7.7191041298       17.2532587194  MEMB      30              0.0000000000
      4035        30  DOPC      C22            18.8520203877        7.1663033571       14.9314620972  MEMB      30              0.0000000000
      4036        30  DOPC      H2R            18.4718341626        6.1461122139       15.1421678023  MEMB      30              0.0000000000
      4037        30  DOPC      H2S            19.8842136557        7.0856764454       14.5352418634  MEMB      30              0.0000000000
      4038        30  DOPC      C3             18.3359832600       10.8886272418       16.2700752243  MEMB      30              0.0000000000
      4039        30  DOPC      HX             18.0745726178       11.7433637329       16.9335283550  MEMB      30              0.0000000000
      4040        30  DOPC      HY             17.4671729780       10.1946533624       16.2046862275  MEMB      30              0.0000000000
      4041        30  DOPC      O31            18.7174679793       11.3692577000       14.9740585921  MEMB      30              0.0000000000
      4042        30  DOPC      C31            17.7261035934       11.7078313540       14.1837569657  MEMB      30              0.0000000000
      4043        30  DOPC      O32            16.5669194836       11.8725763852       14.5175656276  MEMB      30              0.0000000000
      4044        30  DOPC      C32            18.2539589132       11.7693186424       12.7578461299  MEMB      30              0.0000000000
      4045        30  DOPC      H2X            18.3075057281       12.8330671659       12.5035964069  MEMB      30              0.0000000000
      4046        30  DOPC      H2Y            19.2797380307       11.3416394042       12.7192654701  MEMB      30              0.0000000000
      4047        30  DOPC      C23            17.9346951384        7.8968110973       13.9130538197  MEMB      30              0.0000000000
      4048        30  DOPC      H3R            18.2878734480        8.9409073798       13.7654531217  MEMB      30              0.0000000000
      4049        30  DOPC      H3S            16.9114568812        7.9666538518       14.3572193549  MEMB      30              0.0000000000
      4050        30  DOPC      C24            17.7711637876        7.2230402996       12.5330193657  MEMB      30              0.0000000000
      4051        30  DOPC      H4R            16.8911004549        7.7043586340       12.0420522807  MEMB      30              0.0000000000
      4052        30  DOPC      H4S            17.5020325407        6.1530343180       12.6764642462  MEMB      30              0.0000000000
      4053        30  DOPC      C25            18.9573287106        7.3190496941       11.5440159855  MEMB      30              0.0000000000
      4054        30  DOPC      H5R            18.5637031568        7.5073970289       10.5221610499  MEMB      30              0.0000000000
      4055        30  DOPC      H5S            19.4441808038        6.3307722033       11.4583585339  MEMB      30              0.0000000000
      4056        30  DOPC      C26            20.0206219231        8.3839087578       11.8445718865  MEMB      30              0.0000000000
      4057        30  DOPC      H6R            20.3407192807        8.3574499747       12.9094976112  MEMB      30              0.0000000000
      4058        30  DOPC      H6S            19.5915141651        9.3906637445       11.6537549337  MEMB      30              0.0000000000
      4059        30  DOPC      C27            21.2913626053        8.2131220817       11.0022295858  MEMB      30              0.0000000000
      4060        30  DOPC      H7R            21.0315019740        7.9527036250        9.9527082575  MEMB      30              0.0000000000
      4061        30  DOPC      H7S            21.8728786098        7.3612130284       11.4198312677  MEMB      30              0.0000000000
      4062        30  DOPC      C28            22.1245321594        9.5056951871       11.0156748545  MEMB      30              0.0000000000
      4063        30  DOPC      H8R            22.1387978656        9.8874219123       12.0612254116  MEMB      30              0.0000000000
      4064        30  DOPC      H8S            21.5738198879       10.2602990451       10.4090088849  MEMB      30              0.0000000000
      4065        30  DOPC      C29            23.5470155829        9.3113481522       10.5568080842  MEMB      30              0.0000000000
      4066        30  DOPC      H9R            24.0297640509        8.3905055309       10.9209873201  MEMB      30              0.0000000000
      4067        30  DOPC      C210           24.2388085336       10.1371463971        9.7506426656  MEMB      30              0.0000000000
      4068        30  DOPC      H10R           25.2669907773        9.8655193411        9.4667096055  MEMB      30              0.0000000000
      4069        30  DOPC      C211           23.7279107643       11.4205157284        9.1441794902  MEMB      30              0.0000000000
      4070        30  DOPC      H11R           24.4589641938       12.2448216675        9.3047656733  MEMB      30              0.0000000000
      4071        30  DOPC      H11S           22.7768230387       11.7570058131        9.6154150699  MEMB      30              0.0000000000
      4072        30  DOPC      C212           23.4691381770       11.2553015528        7.6347214409  MEMB      30              0.0000000000
      4073        30  DOPC      H12R           24.4361239291       11.1781497079        7.0894372904  MEMB      30              0.0000000000
      4074        30  DOPC      H12S           22.9614875502       12.1760676301        7.2729769666  MEMB      30              0.0000000000
      4075        30  DOPC      C213           22.6079207126       10.0263289224        7.2815140540  MEMB      30              0.0000000000
      4076        30  DOPC      H13R           21.7332791634        9.9827346422        7.9670430748  MEMB      30              0.0000000000
      4077        30  DOPC      H13S           23.2115590849        9.1055544840        7.4417361304  MEMB      30              0.0000000000
      4078        30  DOPC      C214           22.1141739215       10.0518897658        5.8328825909  MEMB      30              0.0000000000
      4079        30  DOPC      H14R           22.8703368593       10.5748804619        5.2059610204  MEMB      30              0.0000000000
      4080        30  DOPC      H14S           21.1851230091       10.6462105747        5.8004412240  MEMB      30              0.0000000000
      4081        30  DOPC      C215           21.8220091881        8.6744583243        5.2259153524  MEMB      30              0.0000000000
      4082        30  DOPC      H15R           20.9263035094        8.2061110857        5.6828887542  MEMB      30              0.0000000000
      4083        30  DOPC      H15S           22.6754963258        8.0019667801        5.4669399994  MEMB      30              0.0000000000
      4084        30  DOPC      C216           21.6574296031        8.7554749141        3.7007891967  MEMB      30              0.0000000000
      4085        30  DOPC      H16R           21.7102075282        9.8181793614        3.3731138902  MEMB      30              0.0000000000
      4086        30  DOPC      H16S           20.6550904083        8.3779464317        3.4086645680  MEMB      30              0.0000000000
      4087        30  DOPC      C217           22.7758633359        7.9560859074        3.0235773605  MEMB      30              0.0000000000
      4088        30  DOPC      H17R           22.5734872776        6.8779806949        3.2040560490  MEMB      30              0.0000000000
      4089        30  DOPC      H17S           23.7237068332        8.2117292947        3.5565109866  MEMB      30              0.0000000000
      4090        30  DOPC      C218           23.0135492195        8.2011297689        1.5324378752  MEMB      30              0.0000000000
      4091        30  DOPC      H18R           24.0107442332        7.7898170115        1.2625626255  MEMB      30              0.0000000000
      4092        30  DOPC      H18S           23.0056338949        9.2893371576        1.3049196460  MEMB      30              0.0000000000
      4093        30  DOPC      H18T           22.2677556497        7.6946088879        0.8865696001  MEMB      30              0.0000000000
      4094        30  DOPC      C33            17.3164123580       11.0862010551       11.7390756926  MEMB      30              0.0000000000
      4095        30  DOPC      H3X            16.2844541720       11.4936438371       11.8298204861  MEMB      30              0.0000000000
      4096        30  DOPC      H3Y            17.2729797798       10.0007618047       11.9710803806  MEMB      30              0.0000000000
      4097        30  DOPC      C34            17.8182065489       11.2946659833       10.3033579753  MEMB      30              0.0000000000
      4098        30  DOPC      H4X            18.9088198760       11.5015093183       10.3846371580  MEMB      30              0.0000000000
      4099        30  DOPC      H4Y            17.3064516212       12.1680498362        9.8378969413  MEMB      30              0.0000000000
      4100        30  DOPC      C35            17.7111454622       10.0683134099        9.3978828067  MEMB      30              0.0000000000
      4101        30  DOPC      H5X            16.7684800184       10.1258275043        8.8216998170  MEMB      30              0.0000000000
      4102        30  DOPC      H5Y            17.6231464575        9.1859430092       10.0599708525  MEMB      30              0.0000000000
      4103        30  DOPC      C36            18.9365828680        9.8529825790        8.4863405945  MEMB      30              0.0000000000
      4104        30  DOPC      H6X            19.5780459614       10.7619648831        8.4912650522  MEMB      30              0.0000000000
      4105        30  DOPC      H6Y            19.5567624098        9.0371756031        8.9182087255  MEMB      30              0.0000000000
      4106        30  DOPC      C37            18.6448165846        9.4670859026        7.0224827022  MEMB      30              0.0000000000
      4107        30  DOPC      H7X            19.6064451871        9.5392021443        6.4870628313  MEMB      30              0.0000000000
      4108        30  DOPC      H7Y            18.3390997159        8.4059305289        6.9859004062  MEMB      30              0.0000000000
      4109        30  DOPC      C38            17.6263552383       10.3618279376        6.2898421755  MEMB      30              0.0000000000
      4110        30  DOPC      H8X            17.8798057664       11.3849576056        6.5404532486  MEMB      30              0.0000000000
      4111        30  DOPC      H8Y            16.6247808523       10.2168414796        6.7474397824  MEMB      30              0.0000000000
      4112        30  DOPC      C39            17.5267234988       10.2632666551        4.7845645921  MEMB      30              0.0000000000
      4113        30  DOPC      H9X            18.2917297492        9.6743389997        4.2541503108  MEMB      30              0.0000000000
      4114        30  DOPC      C310           16.5352656277       10.8577673171        4.1041580254  MEMB      30              0.0000000000
      4115        30  DOPC      H10X           16.3971335870       10.6633869428        3.0271840317  MEMB      30              0.0000000000
      4116        30  DOPC      C311           15.4644996787       11.6692719074        4.7838224860  MEMB      30              0.0000000000
      4117        30  DOPC      H11X           15.8526681724       12.2205098865        5.6714741066  MEMB      30              0.0000000000
      4118        30  DOPC      H11Y           14.6569586289       10.9879657603        5.1422243092  MEMB      30              0.0000000000
      4119        30  DOPC      C312           14.8096708534       12.7103977201        3.8714515919  MEMB      30              0.0000000000
      4120        30  DOPC      H12X           13.9243683499       13.0770907863        4.4293218436  MEMB      30              0.0000000000
      4121        30  DOPC      H12Y           14.4380567759       12.1965335891        2.9638466417  MEMB      30              0.0000000000
      4122        30  DOPC      C313           15.6143908037       13.9815169569        3.5454292115  MEMB      30              0.0000000000
      4123        30  DOPC      H13X           14.9078843576       14.7808030554        3.2195416546  MEMB      30              0.0000000000
      4124        30  DOPC      H13Y           16.1065347576       14.3418816083        4.4757475088  MEMB      30              0.0000000000
      4125        30  DOPC      C314           16.6585964791       13.8230416072        2.4370857245  MEMB      30              0.0000000000
      4126        30  DOPC      H14X           17.2173631892       14.7749468593        2.3558016354  MEMB      30              0.0000000000
      4127        30  DOPC      H14Y           17.3885240178       13.0469830295        2.7532517252  MEMB      30              0.0000000000
      4128        30  DOPC      C315           16.1000030425       13.4375460413        1.0579921671  MEMB      30              0.0000000000
      4129        30  DOPC      H15X           15.3894620684       14.1778793789        0.6702977666  MEMB      30              0.0000000000
      4130        30  DOPC      H15Y           15.4662468307       12.5317743196        1.1997137274  MEMB      30              0.0000000000
      4131        30  DOPC      C316           17.2242771315       13.0037248120        0.0993590680  MEMB      30              0.0000000000
      4132        30  DOPC      H16X           18.1770974524       12.9705917135        0.6711257714  MEMB      30              0.0000000000
      4133        30  DOPC      H16Y           16.9111153221       11.9635839648       -0.0998781657  MEMB      30              0.0000000000
      4134        30  DOPC      C317           17.5092278729       13.6252766409       -1.2880815009  MEMB      30              0.0000000000
      4135        30  DOPC      H17X           17.3316201656       12.8157037616       -2.0347717972  MEMB      30              0.0000000000
      4136        30  DOPC      H17Y           16.8021541646       14.4036663726       -1.6013272863  MEMB      30              0.0000000000
      4137        30  DOPC      C318           18.9691886864       14.0763651280       -1.4926088153  MEMB      30              0.0000000000
      4138        30  DOPC      H18X           19.6341887265       13.6333438044       -0.7284478053  MEMB      30              0.0000000000
      4139        30  DOPC      H18Y           19.3221656244       13.7766548370       -2.4973616109  MEMB      30              0.0000000000
      4140        30  DOPC      H18Z           19.1385097905       15.1611839332       -1.4446461094  MEMB      30              0.0000000000
      4141        31  DOPC      N             -15.1280645359      -19.7536686593       18.7148692204  MEMB      31              0.0000000000
      4142        31  DOPC      C12           -16.0504546995      -20.0964866608       19.8658948026  MEMB      31              0.0000000000
      4143        31  DOPC      H12A          -15.4623661235      -20.0965085057       20.7740657558  MEMB      31              0.0000000000
      4144        31  DOPC      H12B          -16.4311414986      -21.1008256482       19.7419655717  MEMB      31              0.0000000000
      4145        31  DOPC      C13           -15.9385050761      -19.6807977861       17.4547880757  MEMB      31              0.0000000000
      4146        31  DOPC      H13A          -16.3891780497      -20.6288322871       17.2131560165  MEMB      31              0.0000000000
      4147        31  DOPC      H13B          -16.7767492810      -18.9976349413       17.6263792957  MEMB      31              0.0000000000
      4148        31  DOPC      H13C          -15.3544227997      -19.3106178738       16.6266416781  MEMB      31              0.0000000000
      4149        31  DOPC      C14           -14.0187709501      -20.7488656156       18.5972668850  MEMB      31              0.0000000000
      4150        31  DOPC      H14A          -14.4136669300      -21.7402289228       18.4137716691  MEMB      31              0.0000000000
      4151        31  DOPC      H14B          -13.3537210938      -20.4998810874       17.7776486347  MEMB      31              0.0000000000
      4152        31  DOPC      H14C          -13.4248111963      -20.7843421849       19.5013309851  MEMB      31              0.0000000000
      4153        31  DOPC      C15           -14.5321748715      -18.3987105192       18.8949778644  MEMB      31              0.0000000000
      4154        31  DOPC      H15A          -14.0348970687      -18.2206145684       19.8378093849  MEMB      31              0.0000000000
      4155        31  DOPC      H15B          -15.3096434955      -17.6257185490       18.8407889898  MEMB      31              0.0000000000
      4156        31  DOPC      H15C          -13.8553163302      -18.1602393990       18.0872228914  MEMB      31              0.0000000000
      4157        31  DOPC      C11           -17.2724874124      -19.1856335613       20.1406512763  MEMB      31              0.0000000000
      4158        31  DOPC      H11A          -17.6688621755      -19.4632133725       21.1490190786  MEMB      31              0.0000000000
      4159        31  DOPC      H11B          -16.9206875607      -18.1406606278       20.2137442700  MEMB      31              0.0000000000
      4160        31  DOPC      P             -19.6699269736      -18.5782189347       19.5014104923  MEMB      31              0.0000000000
      4161        31  DOPC      O13           -20.0150926646      -19.0068754990       20.8768268547  MEMB      31              0.0000000000
      4162        31  DOPC      O14           -20.6465573121      -18.8615135302       18.4301826808  MEMB      31              0.0000000000
      4163        31  DOPC      O12           -18.2838752136      -19.2975932582       19.1288477769  MEMB      31              0.0000000000
      4164        31  DOPC      O11           -19.3303839944      -17.0257084996       19.4764307390  MEMB      31              0.0000000000
      4165        31  DOPC      C1            -18.2330189084      -16.4761761486       18.7460591178  MEMB      31              0.0000000000
      4166        31  DOPC      HA            -17.5985174878      -17.2352770794       18.2357508555  MEMB      31              0.0000000000
      4167        31  DOPC      HB            -17.5797170243      -15.9358622723       19.4627207655  MEMB      31              0.0000000000
      4168        31  DOPC      C2            -18.6840205805      -15.4637133549       17.6713317796  MEMB      31              0.0000000000
      4169        31  DOPC      HS            -19.5786742455      -14.9373467268       18.0669894361  MEMB      31              0.0000000000
      4170        31  DOPC      O21           -19.0083813567      -16.1934858660       16.4646876049  MEMB      31              0.0000000000
      4171        31  DOPC      C21           -19.5748222146      -15.4079143478       15.5742316318  MEMB      31              0.0000000000
      4172        31  DOPC      O22           -19.7547338003      -14.2095836266       15.6743152532  MEMB      31              0.0000000000
      4173        31  DOPC      C22           -19.9758015820      -16.1719070543       14.3368704725  MEMB      31              0.0000000000
      4174        31  DOPC      H2R           -21.0859501800      -16.1678115867       14.2798726594  MEMB      31              0.0000000000
      4175        31  DOPC      H2S           -19.6146478018      -17.2169451137       14.3821577551  MEMB      31              0.0000000000
      4176        31  DOPC      C3            -17.5673018339      -14.3845239890       17.4279111350  MEMB      31              0.0000000000
      4177        31  DOPC      HX            -17.0064750020      -14.2108848180       18.3698580516  MEMB      31              0.0000000000
      4178        31  DOPC      HY            -18.0567249229      -13.4089501587       17.2041617467  MEMB      31              0.0000000000
      4179        31  DOPC      O31           -16.6994609689      -14.6965540780       16.3241405606  MEMB      31              0.0000000000
      4180        31  DOPC      C31           -15.6820373884      -15.4954482205       16.5870058026  MEMB      31              0.0000000000
      4181        31  DOPC      O32           -15.4434859489      -16.0474744071       17.6470936212  MEMB      31              0.0000000000
      4182        31  DOPC      C32           -14.9772313672      -15.7538438353       15.2579021306  MEMB      31              0.0000000000
      4183        31  DOPC      H2X           -15.7632252401      -16.0400870170       14.5274143183  MEMB      31              0.0000000000
      4184        31  DOPC      H2Y           -14.5237427598      -14.7977833341       14.9265279556  MEMB      31              0.0000000000
      4185        31  DOPC      C23           -19.4062515452      -15.3762241560       13.1512956568  MEMB      31              0.0000000000
      4186        31  DOPC      H3R           -18.3075766212      -15.2435655276       13.2748126070  MEMB      31              0.0000000000
      4187        31  DOPC      H3S           -19.8504912473      -14.3512155698       13.1521995479  MEMB      31              0.0000000000
      4188        31  DOPC      C24           -19.7534176126      -16.0086303986       11.8067887925  MEMB      31              0.0000000000
      4189        31  DOPC      H4R           -19.9216473189      -15.2066600513       11.0580710690  MEMB      31              0.0000000000
      4190        31  DOPC      H4S           -20.7346996280      -16.5134803012       11.9115298984  MEMB      31              0.0000000000
      4191        31  DOPC      C25           -18.6626230858      -16.9720655763       11.3117289224  MEMB      31              0.0000000000
      4192        31  DOPC      H5R           -19.0164566231      -17.4790222777       10.3859410848  MEMB      31              0.0000000000
      4193        31  DOPC      H5S           -18.4628414040      -17.7583842259       12.0740913172  MEMB      31              0.0000000000
      4194        31  DOPC      C26           -17.3181275343      -16.3026721802       11.0440085251  MEMB      31              0.0000000000
      4195        31  DOPC      H6R           -16.6085441407      -17.0755617590       10.6823931036  MEMB      31              0.0000000000
      4196        31  DOPC      H6S           -16.8840640578      -15.9223658297       11.9931684615  MEMB      31              0.0000000000
      4197        31  DOPC      C27           -17.4325562572      -15.1535137531       10.0430474335  MEMB      31              0.0000000000
      4198        31  DOPC      H7R           -16.4647695851      -14.6222028475       10.0708966310  MEMB      31              0.0000000000
      4199        31  DOPC      H7S           -18.1777608235      -14.4029867486       10.3828772914  MEMB      31              0.0000000000
      4200        31  DOPC      C28           -17.7934943234      -15.6223890076        8.6172267413  MEMB      31              0.0000000000
      4201        31  DOPC      H8R           -17.9750318092      -14.7204985186        7.9882169775  MEMB      31              0.0000000000
      4202        31  DOPC      H8S           -18.7509990635      -16.1844560039        8.6515760682  MEMB      31              0.0000000000
      4203        31  DOPC      C29           -16.6978662094      -16.4792124558        8.0294723203  MEMB      31              0.0000000000
      4204        31  DOPC      H9R           -15.9858190930      -16.9062815939        8.7517330496  MEMB      31              0.0000000000
      4205        31  DOPC      C210          -16.4989163431      -16.7377270716        6.7298532136  MEMB      31              0.0000000000
      4206        31  DOPC      H10R          -15.6437189741      -17.3682266224        6.4457227533  MEMB      31              0.0000000000
      4207        31  DOPC      C211          -17.3194154531      -16.2450570245        5.5676297924  MEMB      31              0.0000000000
      4208        31  DOPC      H11R          -16.8647538693      -15.3248285675        5.1478112576  MEMB      31              0.0000000000
      4209        31  DOPC      H11S          -18.3625733686      -16.0025357873        5.8671311865  MEMB      31              0.0000000000
      4210        31  DOPC      C212          -17.3217669249      -17.3310184668        4.4759431702  MEMB      31              0.0000000000
      4211        31  DOPC      H12R          -17.7628753537      -18.2682041408        4.8873452878  MEMB      31              0.0000000000
      4212        31  DOPC      H12S          -16.2712959742      -17.5417953461        4.1847156942  MEMB      31              0.0000000000
      4213        31  DOPC      C213          -18.0579484975      -16.9483135551        3.1841552162  MEMB      31              0.0000000000
      4214        31  DOPC      H13R          -19.0624411808      -16.5591032029        3.4500451460  MEMB      31              0.0000000000
      4215        31  DOPC      H13S          -18.1759425689      -17.8580530912        2.5538630370  MEMB      31              0.0000000000
      4216        31  DOPC      C214          -17.3463815709      -15.8530624844        2.3948499056  MEMB      31              0.0000000000
      4217        31  DOPC      H14R          -16.2514732616      -16.0363799764        2.3735343570  MEMB      31              0.0000000000
      4218        31  DOPC      H14S          -17.5169503238      -14.9211763684        2.9816440299  MEMB      31              0.0000000000
      4219        31  DOPC      C215          -17.8484695444      -15.6221529791        0.9608130610  MEMB      31              0.0000000000
      4220        31  DOPC      H15R          -18.8646375940      -16.0376117846        0.7981662003  MEMB      31              0.0000000000
      4221        31  DOPC      H15S          -17.1630990158      -16.1101332810        0.2326637251  MEMB      31              0.0000000000
      4222        31  DOPC      C216          -17.8293468515      -14.1206549580        0.6822701694  MEMB      31              0.0000000000
      4223        31  DOPC      H16R          -16.7553877089      -13.8371926657        0.6715984209  MEMB      31              0.0000000000
      4224        31  DOPC      H16S          -18.3450999739      -13.5821562008        1.5121988471  MEMB      31              0.0000000000
      4225        31  DOPC      C217          -18.4325501224      -13.6829011682       -0.6433328865  MEMB      31              0.0000000000
      4226        31  DOPC      H17R          -19.4639119380      -14.0866362267       -0.7284583489  MEMB      31              0.0000000000
      4227        31  DOPC      H17S          -17.8302219528      -14.1072386567       -1.4728646893  MEMB      31              0.0000000000
      4228        31  DOPC      C218          -18.4844915551      -12.1687565086       -0.7903992003  MEMB      31              0.0000000000
      4229        31  DOPC      H18R          -17.4852476750      -11.7214626554       -0.9392513860  MEMB      31              0.0000000000
      4230        31  DOPC      H18S          -18.9508726044      -11.7223935003        0.1114673623  MEMB      31              0.0000000000
      4231        31  DOPC      H18T          -19.0797777546      -11.8941225542       -1.6818789944  MEMB      31              0.0000000000
      4232        31  DOPC      C33           -13.8982490638      -16.8544629281       15.3033664982  MEMB      31              0.0000000000
      4233        31  DOPC      H3X           -14.3051531416      -17.7936408867       15.7284505340  MEMB      31              0.0000000000
      4234        31  DOPC      H3Y           -13.0755384830      -16.5153676138       15.9733051204  MEMB      31              0.0000000000
      4235        31  DOPC      C34           -13.3144243682      -17.1203365719       13.9051104140  MEMB      31              0.0000000000
      4236        31  DOPC      H4X           -12.3797589545      -17.7167553897       13.9990712663  MEMB      31              0.0000000000
      4237        31  DOPC      H4Y           -13.0429385478      -16.1319704581       13.4618747717  MEMB      31              0.0000000000
      4238        31  DOPC      C35           -14.2547541923      -17.8526524858       12.9290064722  MEMB      31              0.0000000000
      4239        31  DOPC      H5X           -13.7440832268      -17.8609155157       11.9376927433  MEMB      31              0.0000000000
      4240        31  DOPC      H5Y           -15.2007660873      -17.2842240906       12.8052611448  MEMB      31              0.0000000000
      4241        31  DOPC      C36           -14.5956988009      -19.3016680342       13.3196773679  MEMB      31              0.0000000000
      4242        31  DOPC      H6X           -13.6499690521      -19.8906296204       13.3427038955  MEMB      31              0.0000000000
      4243        31  DOPC      H6Y           -15.0412487044      -19.3274159018       14.3378563861  MEMB      31              0.0000000000
      4244        31  DOPC      C37           -15.5740372638      -19.9904029221       12.3466104457  MEMB      31              0.0000000000
      4245        31  DOPC      H7X           -15.6032597946      -21.0756626017       12.5953163066  MEMB      31              0.0000000000
      4246        31  DOPC      H7Y           -16.5993937466      -19.5799639634       12.4948340360  MEMB      31              0.0000000000
      4247        31  DOPC      C38           -15.1654407422      -19.8108329509       10.8707186990  MEMB      31              0.0000000000
      4248        31  DOPC      H8X           -14.0817111821      -20.0545606732       10.7975883824  MEMB      31              0.0000000000
      4249        31  DOPC      H8Y           -15.2773366318      -18.7395070582       10.6023122068  MEMB      31              0.0000000000
      4250        31  DOPC      C39           -15.9841813505      -20.6338466794        9.9128757753  MEMB      31              0.0000000000
      4251        31  DOPC      H9X           -17.0229815985      -20.8266730486       10.2258186315  MEMB      31              0.0000000000
      4252        31  DOPC      C310          -15.5539506908      -21.1062090429        8.7301528635  MEMB      31              0.0000000000
      4253        31  DOPC      H10X          -16.2434651899      -21.7078138936        8.1167161108  MEMB      31              0.0000000000
      4254        31  DOPC      C311          -14.1828081155      -20.9123188398        8.1254041505  MEMB      31              0.0000000000
      4255        31  DOPC      H11X          -13.7998029086      -21.8917702020        7.7571127131  MEMB      31              0.0000000000
      4256        31  DOPC      H11Y          -13.4376151547      -20.5441932387        8.8629891389  MEMB      31              0.0000000000
      4257        31  DOPC      C312          -14.2119074302      -19.9292569931        6.9355914329  MEMB      31              0.0000000000
      4258        31  DOPC      H12X          -13.1767278219      -19.8362079238        6.5372543673  MEMB      31              0.0000000000
      4259        31  DOPC      H12Y          -14.5331062258      -18.9243472342        7.2799268638  MEMB      31              0.0000000000
      4260        31  DOPC      C313          -15.1372984505      -20.4341730437        5.8215359926  MEMB      31              0.0000000000
      4261        31  DOPC      H13X          -15.0924514257      -21.5325592100        5.8907312793  MEMB      31              0.0000000000
      4262        31  DOPC      H13Y          -16.1906382916      -20.1462939905        6.0289454131  MEMB      31              0.0000000000
      4263        31  DOPC      C314          -14.7433167388      -20.0632256653        4.3857126269  MEMB      31              0.0000000000
      4264        31  DOPC      H14X          -14.8938514744      -18.9757711943        4.2593712114  MEMB      31              0.0000000000
      4265        31  DOPC      H14Y          -13.6644868462      -20.2713658938        4.2075279618  MEMB      31              0.0000000000
      4266        31  DOPC      C315          -15.5707335553      -20.8525702835        3.3543850806  MEMB      31              0.0000000000
      4267        31  DOPC      H15X          -16.5481076339      -21.1106490080        3.8225866853  MEMB      31              0.0000000000
      4268        31  DOPC      H15Y          -15.0479563343      -21.8021312040        3.1189223490  MEMB      31              0.0000000000
      4269        31  DOPC      C316          -15.8746743783      -20.1395067470        2.0313509235  MEMB      31              0.0000000000
      4270        31  DOPC      H16X          -16.1725208850      -20.9013593617        1.2734794994  MEMB      31              0.0000000000
      4271        31  DOPC      H16Y          -16.7520445116      -19.4773885452        2.1952007351  MEMB      31              0.0000000000
      4272        31  DOPC      C317          -14.7383355231      -19.2877295200        1.4629031818  MEMB      31              0.0000000000
      4273        31  DOPC      H17X          -14.3811824225      -18.5751683267        2.2391342460  MEMB      31              0.0000000000
      4274        31  DOPC      H17Y          -13.8784593951      -19.9364457856        1.1827990003  MEMB      31              0.0000000000
      4275        31  DOPC      C318          -15.2072803082      -18.4688097554        0.2613473733  MEMB      31              0.0000000000
      4276        31  DOPC      H18X          -16.1075292844      -17.8867681893        0.5473213007  MEMB      31              0.0000000000
      4277        31  DOPC      H18Y          -14.4197554811      -17.7572781662       -0.0597159943  MEMB      31              0.0000000000
      4278        31  DOPC      H18Z          -15.4799293883      -19.1256521191       -0.5921518533  MEMB      31              0.0000000000
      4279        32  DOPC      N              -0.0101506215      -26.8285183548       19.3163211226  MEMB      32              0.0000000000
      4280        32  DOPC      C12             1.1877676308      -27.4180338667       18.5854271169  MEMB      32              0.0000000000
      4281        32  DOPC      H12A            0.9505784817      -27.5135585669       17.5318575135  MEMB      32              0.0000000000
      4282        32  DOPC      H12B            1.3582598197      -28.4132630805       18.9675436169  MEMB      32              0.0000000000
      4283        32  DOPC      C13            -0.2200795507      -25.3975367615       18.9040824054  MEMB      32              0.0000000000
      4284        32  DOPC      H13A           -0.2936244738      -25.2682783349       17.8263789066  MEMB      32              0.0000000000
      4285        32  DOPC      H13B           -1.0773533258      -24.9524012254       19.3901232216  MEMB      32              0.0000000000
      4286        32  DOPC      H13C            0.6618443523      -24.8188860013       19.1970055191  MEMB      32              0.0000000000
      4287        32  DOPC      C14             0.2565338524      -26.8520858688       20.8002857346  MEMB      32              0.0000000000
      4288        32  DOPC      H14A           -0.4943155734      -26.3195911557       21.3640999494  MEMB      32              0.0000000000
      4289        32  DOPC      H14B            0.3711072532      -27.8500738936       21.1857029689  MEMB      32              0.0000000000
      4290        32  DOPC      H14C            1.2076826023      -26.3416336711       20.9913185329  MEMB      32              0.0000000000
      4291        32  DOPC      C15            -1.2271427123      -27.6183867811       19.0378053642  MEMB      32              0.0000000000
      4292        32  DOPC      H15A           -1.9801719515      -27.3214165385       19.7557878883  MEMB      32              0.0000000000
      4293        32  DOPC      H15B           -1.0261397583      -28.6794909790       19.1328906038  MEMB      32              0.0000000000
      4294        32  DOPC      H15C           -1.5999554126      -27.4429436016       18.0336821951  MEMB      32              0.0000000000
      4295        32  DOPC      C11             2.5517853583      -26.6896558802       18.6766400587  MEMB      32              0.0000000000
      4296        32  DOPC      H11A            3.3493792842      -27.4409982093       18.4380120931  MEMB      32              0.0000000000
      4297        32  DOPC      H11B            2.5694403094      -25.9373651752       17.8641631924  MEMB      32              0.0000000000
      4298        32  DOPC      P               4.2374778247      -25.4458337025       20.1127178877  MEMB      32              0.0000000000
      4299        32  DOPC      O13             5.1852143397      -26.5887110770       20.1240363005  MEMB      32              0.0000000000
      4300        32  DOPC      O14             4.3448827128      -24.4728930638       21.2286869832  MEMB      32              0.0000000000
      4301        32  DOPC      O12             2.7849611499      -26.0614014453       19.9505612382  MEMB      32              0.0000000000
      4302        32  DOPC      O11             4.4234295252      -24.6727282322       18.7369371113  MEMB      32              0.0000000000
      4303        32  DOPC      C1              3.6008052752      -23.5113917585       18.5104964294  MEMB      32              0.0000000000
      4304        32  DOPC      HA              3.9011499899      -22.6833305779       19.1945211797  MEMB      32              0.0000000000
      4305        32  DOPC      HB              2.5266124956      -23.7232286345       18.7264370691  MEMB      32              0.0000000000
      4306        32  DOPC      C2              3.6418854269      -22.9522860748       17.0406092161  MEMB      32              0.0000000000
      4307        32  DOPC      HS              2.8522244334      -22.1636447594       16.9837179385  MEMB      32              0.0000000000
      4308        32  DOPC      O21             3.4252800512      -23.9525322208       16.0161207882  MEMB      32              0.0000000000
      4309        32  DOPC      C21             2.2232710880      -24.4737591720       15.9179502080  MEMB      32              0.0000000000
      4310        32  DOPC      O22             1.2413666256      -24.2008828679       16.5863261229  MEMB      32              0.0000000000
      4311        32  DOPC      C22             2.1793562291      -25.4874187654       14.7734280015  MEMB      32              0.0000000000
      4312        32  DOPC      H2R             1.5566658575      -26.3300314125       15.1399874202  MEMB      32              0.0000000000
      4313        32  DOPC      H2S             3.1769605932      -25.8883781659       14.5929342615  MEMB      32              0.0000000000
      4314        32  DOPC      C3              4.9922409835      -22.2219455036       16.7174573235  MEMB      32              0.0000000000
      4315        32  DOPC      HX              5.2643988320      -21.6177298839       17.6093942727  MEMB      32              0.0000000000
      4316        32  DOPC      HY              4.7852014816      -21.4917054574       15.9048665487  MEMB      32              0.0000000000
      4317        32  DOPC      O31             6.0817243648      -23.1229774322       16.3981863088  MEMB      32              0.0000000000
      4318        32  DOPC      C31             6.4358427587      -23.2144356555       15.1092323617  MEMB      32              0.0000000000
      4319        32  DOPC      O32             6.0868659139      -22.4655525346       14.2160248451  MEMB      32              0.0000000000
      4320        32  DOPC      C32             7.2225015308      -24.5246950402       14.9006410315  MEMB      32              0.0000000000
      4321        32  DOPC      H2X             7.6849159370      -24.4797700517       13.9022402966  MEMB      32              0.0000000000
      4322        32  DOPC      H2Y             8.0329825248      -24.5252890169       15.6611825363  MEMB      32              0.0000000000
      4323        32  DOPC      C23             1.5081876839      -24.9254314661       13.4971323317  MEMB      32              0.0000000000
      4324        32  DOPC      H3R             0.9737328248      -23.9795174755       13.7376278772  MEMB      32              0.0000000000
      4325        32  DOPC      H3S             0.7390897002      -25.6642484947       13.1710319028  MEMB      32              0.0000000000
      4326        32  DOPC      C24             2.3823802905      -24.6646164951       12.2574859620  MEMB      32              0.0000000000
      4327        32  DOPC      H4R             2.8207480696      -25.6196232583       11.9202128412  MEMB      32              0.0000000000
      4328        32  DOPC      H4S             3.2272014192      -23.9876484385       12.4956917680  MEMB      32              0.0000000000
      4329        32  DOPC      C25             1.4725500775      -24.0982737933       11.1439073580  MEMB      32              0.0000000000
      4330        32  DOPC      H5R             0.9391245525      -23.2257878836       11.5818156888  MEMB      32              0.0000000000
      4331        32  DOPC      H5S             0.6933667625      -24.8602472536       10.9320256090  MEMB      32              0.0000000000
      4332        32  DOPC      C26             2.0915837440      -23.6407131120        9.8036794814  MEMB      32              0.0000000000
      4333        32  DOPC      H6R             1.8916447238      -22.5503230101        9.6827245789  MEMB      32              0.0000000000
      4334        32  DOPC      H6S             1.5499934589      -24.1501378169        8.9756892487  MEMB      32              0.0000000000
      4335        32  DOPC      C27             3.5967399671      -23.8798719892        9.6180971484  MEMB      32              0.0000000000
      4336        32  DOPC      H7R             3.8079569602      -24.9515158810        9.7887379340  MEMB      32              0.0000000000
      4337        32  DOPC      H7S             4.1799522152      -23.2997541872       10.3687377724  MEMB      32              0.0000000000
      4338        32  DOPC      C28             4.0560121818      -23.5332656924        8.1911398304  MEMB      32              0.0000000000
      4339        32  DOPC      H8R             3.6343513528      -22.5413490997        7.9112296316  MEMB      32              0.0000000000
      4340        32  DOPC      H8S             3.6030664298      -24.2895477191        7.5081222798  MEMB      32              0.0000000000
      4341        32  DOPC      C29             5.5597921541      -23.5273966898        8.0767322278  MEMB      32              0.0000000000
      4342        32  DOPC      H9R             6.1039730104      -23.6272844139        9.0309937634  MEMB      32              0.0000000000
      4343        32  DOPC      C210            6.2507242346      -23.3694952779        6.9331569530  MEMB      32              0.0000000000
      4344        32  DOPC      H10R            7.3503886428      -23.3123478640        6.9720054992  MEMB      32              0.0000000000
      4345        32  DOPC      C211            5.6438416860      -23.1673025586        5.5684172434  MEMB      32              0.0000000000
      4346        32  DOPC      H11R            6.4201885983      -22.7583190135        4.8831497556  MEMB      32              0.0000000000
      4347        32  DOPC      H11S            4.8468821978      -22.3907835267        5.6384484609  MEMB      32              0.0000000000
      4348        32  DOPC      C212            5.0096902418      -24.3943868010        4.8731082522  MEMB      32              0.0000000000
      4349        32  DOPC      H12R            4.5127663622      -25.0541617580        5.6209438967  MEMB      32              0.0000000000
      4350        32  DOPC      H12S            5.7982535596      -24.9971149288        4.3722774781  MEMB      32              0.0000000000
      4351        32  DOPC      C213            3.9325179576      -23.9760836852        3.8547800139  MEMB      32              0.0000000000
      4352        32  DOPC      H13R            3.1230256149      -23.4831500125        4.4443292091  MEMB      32              0.0000000000
      4353        32  DOPC      H13S            3.4781777446      -24.8599485580        3.3608106432  MEMB      32              0.0000000000
      4354        32  DOPC      C214            4.4092651959      -22.9772717057        2.7888522337  MEMB      32              0.0000000000
      4355        32  DOPC      H14R            5.1215162672      -22.2487495746        3.2267823060  MEMB      32              0.0000000000
      4356        32  DOPC      H14S            3.5240914682      -22.3790259395        2.4911979193  MEMB      32              0.0000000000
      4357        32  DOPC      C215            5.0291575236      -23.6050326581        1.5241107658  MEMB      32              0.0000000000
      4358        32  DOPC      H15R            4.3272928712      -24.3309095870        1.0614808009  MEMB      32              0.0000000000
      4359        32  DOPC      H15S            5.9546724909      -24.1488788724        1.8209048047  MEMB      32              0.0000000000
      4360        32  DOPC      C216            5.3824128983      -22.5220332854        0.4928766913  MEMB      32              0.0000000000
      4361        32  DOPC      H16R            5.8299195689      -21.7050256611        1.0893282061  MEMB      32              0.0000000000
      4362        32  DOPC      H16S            4.4855237723      -22.0871216056        0.0137012632  MEMB      32              0.0000000000
      4363        32  DOPC      C217            6.3637402328      -22.9317614188       -0.6125460415  MEMB      32              0.0000000000
      4364        32  DOPC      H17R            6.8337038654      -23.9142013514       -0.3888041289  MEMB      32              0.0000000000
      4365        32  DOPC      H17S            7.1682143861      -22.1786001125       -0.6135594555  MEMB      32              0.0000000000
      4366        32  DOPC      C218            5.7952813016      -22.8809787140       -2.0281138642  MEMB      32              0.0000000000
      4367        32  DOPC      H18R            5.4863948970      -21.8411956258       -2.2774021460  MEMB      32              0.0000000000
      4368        32  DOPC      H18S            4.9246596606      -23.5535397678       -2.1309890468  MEMB      32              0.0000000000
      4369        32  DOPC      H18T            6.5504771033      -23.2093034996       -2.7671468270  MEMB      32              0.0000000000
      4370        32  DOPC      C33             6.3857719696      -25.8305567528       15.0702596409  MEMB      32              0.0000000000
      4371        32  DOPC      H3X             5.7203244172      -25.7067022371       15.9603896748  MEMB      32              0.0000000000
      4372        32  DOPC      H3Y             7.0708579628      -26.6788574422       15.2973764275  MEMB      32              0.0000000000
      4373        32  DOPC      C34             5.4979632398      -26.2561069244       13.8760793599  MEMB      32              0.0000000000
      4374        32  DOPC      H4X             4.8325935646      -25.4016705133       13.6245000615  MEMB      32              0.0000000000
      4375        32  DOPC      H4Y             4.8865955660      -27.1204205339       14.2316657795  MEMB      32              0.0000000000
      4376        32  DOPC      C35             6.1607156874      -26.6949590459       12.5624748852  MEMB      32              0.0000000000
      4377        32  DOPC      H5X             6.8239626675      -27.5590430170       12.7674197060  MEMB      32              0.0000000000
      4378        32  DOPC      H5Y             6.7742932570      -25.8409604590       12.1903239526  MEMB      32              0.0000000000
      4379        32  DOPC      C36             5.1624797016      -27.0738796556       11.4337561290  MEMB      32              0.0000000000
      4380        32  DOPC      H6X             4.7223647247      -26.1244945757       11.0794086667  MEMB      32              0.0000000000
      4381        32  DOPC      H6Y             5.7198417459      -27.5145806418       10.5790444186  MEMB      32              0.0000000000
      4382        32  DOPC      C37             3.9983559728      -28.0142997506       11.8223997889  MEMB      32              0.0000000000
      4383        32  DOPC      H7X             4.4318217399      -28.9646245523       12.2083195223  MEMB      32              0.0000000000
      4384        32  DOPC      H7Y             3.4280638260      -27.5583683489       12.6577547497  MEMB      32              0.0000000000
      4385        32  DOPC      C38             2.9790751101      -28.3746501770       10.6940728952  MEMB      32              0.0000000000
      4386        32  DOPC      H8X             2.1594831792      -28.9458026169       11.1890764641  MEMB      32              0.0000000000
      4387        32  DOPC      H8Y             3.4807125952      -29.0831169648       10.0233278250  MEMB      32              0.0000000000
      4388        32  DOPC      C39             2.3435417550      -27.2989426302        9.8482449904  MEMB      32              0.0000000000
      4389        32  DOPC      H9X             1.6291412758      -26.6722173078       10.3963224407  MEMB      32              0.0000000000
      4390        32  DOPC      C310            2.4821529945      -27.0816686511        8.5211821405  MEMB      32              0.0000000000
      4391        32  DOPC      H10X            1.9605825977      -26.2164939430        8.0844018556  MEMB      32              0.0000000000
      4392        32  DOPC      C311            3.3109960562      -27.8566108613        7.5218386852  MEMB      32              0.0000000000
      4393        32  DOPC      H11X            3.6317992467      -28.8304890069        7.9365883945  MEMB      32              0.0000000000
      4394        32  DOPC      H11Y            4.2362621627      -27.2888893143        7.2790651221  MEMB      32              0.0000000000
      4395        32  DOPC      C312            2.5593222150      -28.1367458761        6.2001725983  MEMB      32              0.0000000000
      4396        32  DOPC      H12X            2.5619501281      -27.2112648693        5.5840871006  MEMB      32              0.0000000000
      4397        32  DOPC      H12Y            1.4936270894      -28.3822144343        6.4169945871  MEMB      32              0.0000000000
      4398        32  DOPC      C313            3.1111105641      -29.3178412420        5.3701931784  MEMB      32              0.0000000000
      4399        32  DOPC      H13X            2.8802205750      -30.2599450306        5.9142435231  MEMB      32              0.0000000000
      4400        32  DOPC      H13Y            2.5460681224      -29.3592045619        4.4123581139  MEMB      32              0.0000000000
      4401        32  DOPC      C314            4.6209798288      -29.3275746981        5.0575357522  MEMB      32              0.0000000000
      4402        32  DOPC      H14X            5.1859143575      -29.5055189851        6.0008024042  MEMB      32              0.0000000000
      4403        32  DOPC      H14Y            4.8202538368      -30.1962310975        4.3871792191  MEMB      32              0.0000000000
      4404        32  DOPC      C315            5.1826265263      -28.0622098326        4.3843557490  MEMB      32              0.0000000000
      4405        32  DOPC      H15X            6.2270489335      -28.2638034120        4.0558605948  MEMB      32              0.0000000000
      4406        32  DOPC      H15Y            5.2310020210      -27.2593085614        5.1535599169  MEMB      32              0.0000000000
      4407        32  DOPC      C316            4.3789786850      -27.5308200269        3.1844923971  MEMB      32              0.0000000000
      4408        32  DOPC      H16X            3.3775958308      -27.2022594576        3.5386410158  MEMB      32              0.0000000000
      4409        32  DOPC      H16Y            4.8953682514      -26.6264722678        2.7884957196  MEMB      32              0.0000000000
      4410        32  DOPC      C317            4.1932799543      -28.5229791050        2.0307372787  MEMB      32              0.0000000000
      4411        32  DOPC      H17X            5.1896034875      -28.7603441636        1.5934569848  MEMB      32              0.0000000000
      4412        32  DOPC      H17Y            3.7652919301      -29.4739623129        2.4180457679  MEMB      32              0.0000000000
      4413        32  DOPC      C318            3.2692748007      -27.9789364241        0.9378138061  MEMB      32              0.0000000000
      4414        32  DOPC      H18X            3.6561656937      -27.0072659610        0.5627732332  MEMB      32              0.0000000000
      4415        32  DOPC      H18Y            3.2071041101      -28.6893668459        0.0859654819  MEMB      32              0.0000000000
      4416        32  DOPC      H18Z            2.2451537048      -27.8124209756        1.3365258559  MEMB      32              0.0000000000
      4417        33  DOPC      N             -13.1863965881       22.1848421677       18.3501564985  MEMB      33              0.0000000000
      4418        33  DOPC      C12           -11.7924529739       22.7600969567       18.0513346468  MEMB      33              0.0000000000
      4419        33  DOPC      H12A          -11.8992214004       23.7335876414       17.5811026129  MEMB      33              0.0000000000
      4420        33  DOPC      H12B          -11.2804463555       22.1282973071       17.3306301335  MEMB      33              0.0000000000
      4421        33  DOPC      C13           -14.0380587721       23.2281937340       19.0155212967  MEMB      33              0.0000000000
      4422        33  DOPC      H13A          -14.3793640368       23.9853495986       18.3151335700  MEMB      33              0.0000000000
      4423        33  DOPC      H13B          -14.8938847434       22.7954972470       19.5030304956  MEMB      33              0.0000000000
      4424        33  DOPC      H13C          -13.4700864568       23.7587807747       19.7862310903  MEMB      33              0.0000000000
      4425        33  DOPC      C14           -13.0895471159       21.0623717476       19.3296535220  MEMB      33              0.0000000000
      4426        33  DOPC      H14A          -12.5879109090       21.4372288100       20.2218909772  MEMB      33              0.0000000000
      4427        33  DOPC      H14B          -14.0720569540       20.6898562736       19.6144000297  MEMB      33              0.0000000000
      4428        33  DOPC      H14C          -12.4886085905       20.2766234631       18.9141512680  MEMB      33              0.0000000000
      4429        33  DOPC      C15           -13.8825286784       21.7183683810       17.1110329249  MEMB      33              0.0000000000
      4430        33  DOPC      H15A          -14.8252098073       21.2328309059       17.3408321895  MEMB      33              0.0000000000
      4431        33  DOPC      H15B          -13.3162218664       21.0111386804       16.5207750349  MEMB      33              0.0000000000
      4432        33  DOPC      H15C          -14.1515934396       22.5642922073       16.4804201846  MEMB      33              0.0000000000
      4433        33  DOPC      C11           -10.8307614361       22.9932305642       19.2568614962  MEMB      33              0.0000000000
      4434        33  DOPC      H11A          -10.5502612996       22.0069637862       19.6946522872  MEMB      33              0.0000000000
      4435        33  DOPC      H11B           -9.8625009085       23.4305475991       18.9069586650  MEMB      33              0.0000000000
      4436        33  DOPC      P             -11.5512629197       25.3843885926       20.1788176169  MEMB      33              0.0000000000
      4437        33  DOPC      O13           -10.8128420398       26.0070887836       21.2923696581  MEMB      33              0.0000000000
      4438        33  DOPC      O14           -12.9967629118       25.6907796901       20.1377802092  MEMB      33              0.0000000000
      4439        33  DOPC      O12           -11.4274143940       23.7988526503       20.2714824464  MEMB      33              0.0000000000
      4440        33  DOPC      O11           -10.8455759196       25.7617504098       18.8085329157  MEMB      33              0.0000000000
      4441        33  DOPC      C1            -11.3089300547       26.8809122170       18.0611272653  MEMB      33              0.0000000000
      4442        33  DOPC      HA            -10.5235441742       27.1849292701       17.3288209445  MEMB      33              0.0000000000
      4443        33  DOPC      HB            -11.4679067907       27.7643717145       18.7229378742  MEMB      33              0.0000000000
      4444        33  DOPC      C2            -12.6176449303       26.5600060103       17.2828610184  MEMB      33              0.0000000000
      4445        33  DOPC      HS            -13.3379836108       26.0528291268       17.9583484485  MEMB      33              0.0000000000
      4446        33  DOPC      O21           -12.3084767282       25.7267427168       16.1471221060  MEMB      33              0.0000000000
      4447        33  DOPC      C21           -13.3132675408       25.0016477929       15.6635354149  MEMB      33              0.0000000000
      4448        33  DOPC      O22           -14.4050502964       24.8699668149       16.1927883892  MEMB      33              0.0000000000
      4449        33  DOPC      C22           -12.8200292733       24.2116013794       14.4482385921  MEMB      33              0.0000000000
      4450        33  DOPC      H2R           -12.5645172220       23.1873144520       14.7852849787  MEMB      33              0.0000000000
      4451        33  DOPC      H2S           -11.8978163392       24.7027150433       14.0732081357  MEMB      33              0.0000000000
      4452        33  DOPC      C3            -13.2875668037       27.8887596337       16.8642957164  MEMB      33              0.0000000000
      4453        33  DOPC      HX            -13.5795115526       28.4035598156       17.8092963506  MEMB      33              0.0000000000
      4454        33  DOPC      HY            -14.2275237688       27.6893760249       16.3005561587  MEMB      33              0.0000000000
      4455        33  DOPC      O31           -12.3714478477       28.7514478547       16.1670526936  MEMB      33              0.0000000000
      4456        33  DOPC      C31           -12.3535034563       28.5813503426       14.8476869739  MEMB      33              0.0000000000
      4457        33  DOPC      O32           -12.9224565152       27.6742878645       14.2587972191  MEMB      33              0.0000000000
      4458        33  DOPC      C32           -11.5993467658       29.7164003449       14.1438553685  MEMB      33              0.0000000000
      4459        33  DOPC      H2X           -12.2648635722       30.1719966456       13.3924935670  MEMB      33              0.0000000000
      4460        33  DOPC      H2Y           -11.3887767688       30.5000580339       14.9010108461  MEMB      33              0.0000000000
      4461        33  DOPC      C23           -13.8521072126       24.1453392063       13.2967544737  MEMB      33              0.0000000000
      4462        33  DOPC      H3R           -14.2019408862       25.1786155982       13.0637589975  MEMB      33              0.0000000000
      4463        33  DOPC      H3S           -14.7334222931       23.5395937699       13.6093320738  MEMB      33              0.0000000000
      4464        33  DOPC      C24           -13.2320196906       23.5336795681       12.0299158078  MEMB      33              0.0000000000
      4465        33  DOPC      H4R           -12.8082376541       22.5379544973       12.2949694497  MEMB      33              0.0000000000
      4466        33  DOPC      H4S           -12.3866633514       24.1750561151       11.6917627866  MEMB      33              0.0000000000
      4467        33  DOPC      C25           -14.2141395621       23.3352954406       10.8604885904  MEMB      33              0.0000000000
      4468        33  DOPC      H5R           -15.0442842718       22.6761293130       11.1971712745  MEMB      33              0.0000000000
      4469        33  DOPC      H5S           -13.6843968232       22.7908726220       10.0454073532  MEMB      33              0.0000000000
      4470        33  DOPC      C26           -14.8121795047       24.6307129713       10.2787232437  MEMB      33              0.0000000000
      4471        33  DOPC      H6R           -14.6646730437       25.4783074883       10.9795198689  MEMB      33              0.0000000000
      4472        33  DOPC      H6S           -15.9126993930       24.4930120034       10.1919991361  MEMB      33              0.0000000000
      4473        33  DOPC      C27           -14.2616278050       24.9934463723        8.8848857076  MEMB      33              0.0000000000
      4474        33  DOPC      H7R           -14.8218662602       25.8708523726        8.4842718468  MEMB      33              0.0000000000
      4475        33  DOPC      H7S           -14.4563130904       24.1397177584        8.1974249357  MEMB      33              0.0000000000
      4476        33  DOPC      C28           -12.7586057070       25.3210857071        8.8734077498  MEMB      33              0.0000000000
      4477        33  DOPC      H8R           -12.4372034949       25.4143729176        7.8132690635  MEMB      33              0.0000000000
      4478        33  DOPC      H8S           -12.1891961827       24.4621368287        9.2899114359  MEMB      33              0.0000000000
      4479        33  DOPC      C29           -12.4973181239       26.5728706626        9.6843749103  MEMB      33              0.0000000000
      4480        33  DOPC      H9R           -12.7923173123       26.4959728952       10.7447040141  MEMB      33              0.0000000000
      4481        33  DOPC      C210          -11.9009961753       27.7038635495        9.2547779299  MEMB      33              0.0000000000
      4482        33  DOPC      H10R          -11.8045418952       28.5485808725        9.9512272613  MEMB      33              0.0000000000
      4483        33  DOPC      C211          -11.3757233524       27.9206408255        7.8574307408  MEMB      33              0.0000000000
      4484        33  DOPC      H11R          -11.9405207575       27.2455204538        7.1902164351  MEMB      33              0.0000000000
      4485        33  DOPC      H11S          -10.3157410234       27.5949421439        7.8231076351  MEMB      33              0.0000000000
      4486        33  DOPC      C212          -11.4693976143       29.3337521235        7.2273960861  MEMB      33              0.0000000000
      4487        33  DOPC      H12R          -10.8456274631       30.0559569809        7.7979748251  MEMB      33              0.0000000000
      4488        33  DOPC      H12S          -12.5269280189       29.6776079318        7.2940687060  MEMB      33              0.0000000000
      4489        33  DOPC      C213          -11.0411144109       29.3873431610        5.7386767663  MEMB      33              0.0000000000
      4490        33  DOPC      H13R           -9.9445617218       29.5422158667        5.6544066873  MEMB      33              0.0000000000
      4491        33  DOPC      H13S          -11.5211588046       30.2729701264        5.2649469246  MEMB      33              0.0000000000
      4492        33  DOPC      C214          -11.4247175460       28.1298803571        4.9444458645  MEMB      33              0.0000000000
      4493        33  DOPC      H14R          -12.4060202732       27.7582632174        5.3187681024  MEMB      33              0.0000000000
      4494        33  DOPC      H14S          -10.6695402562       27.3296454764        5.1051808279  MEMB      33              0.0000000000
      4495        33  DOPC      C215          -11.6528293865       28.3476947179        3.4522754015  MEMB      33              0.0000000000
      4496        33  DOPC      H15R          -10.7120945423       28.6322965636        2.9569581194  MEMB      33              0.0000000000
      4497        33  DOPC      H15S          -12.3432658172       29.2121022242        3.3590629291  MEMB      33              0.0000000000
      4498        33  DOPC      C216          -12.2352287494       27.0639664929        2.8297105474  MEMB      33              0.0000000000
      4499        33  DOPC      H16R          -12.8566684598       26.5378155713        3.5895128921  MEMB      33              0.0000000000
      4500        33  DOPC      H16S          -11.3954428272       26.3772585626        2.6093737093  MEMB      33              0.0000000000
      4501        33  DOPC      C217          -13.1231892294       27.2362172712        1.5857432203  MEMB      33              0.0000000000
      4502        33  DOPC      H17R          -14.1575276072       26.9287072376        1.8703645816  MEMB      33              0.0000000000
      4503        33  DOPC      H17S          -12.7816803014       26.5382428175        0.7930652472  MEMB      33              0.0000000000
      4504        33  DOPC      C218          -13.1462083269       28.6264599176        0.9610883867  MEMB      33              0.0000000000
      4505        33  DOPC      H18R          -13.7502933648       28.6170487642        0.0309553258  MEMB      33              0.0000000000
      4506        33  DOPC      H18S          -12.1221316346       28.9806633997        0.7283989207  MEMB      33              0.0000000000
      4507        33  DOPC      H18T          -13.6080350617       29.3461719540        1.6616223585  MEMB      33              0.0000000000
      4508        33  DOPC      C33           -10.2559047656       29.2971461178       13.5086616553  MEMB      33              0.0000000000
      4509        33  DOPC      H3X            -9.6422805204       28.8817261703       14.3303851585  MEMB      33              0.0000000000
      4510        33  DOPC      H3Y            -9.7247728131       30.1980012419       13.1392607411  MEMB      33              0.0000000000
      4511        33  DOPC      C34           -10.2800320763       28.3118632086       12.3313256349  MEMB      33              0.0000000000
      4512        33  DOPC      H4X           -10.2381887115       28.8832986224       11.3760724829  MEMB      33              0.0000000000
      4513        33  DOPC      H4Y           -11.2164303788       27.7146725103       12.3443381112  MEMB      33              0.0000000000
      4514        33  DOPC      C35            -9.0608392402       27.3799596204       12.4146912223  MEMB      33              0.0000000000
      4515        33  DOPC      H5X            -9.1013259180       26.8523237166       13.3960508450  MEMB      33              0.0000000000
      4516        33  DOPC      H5Y            -8.1418980266       28.0036607117       12.3997660989  MEMB      33              0.0000000000
      4517        33  DOPC      C36            -8.9478339114       26.3124148429       11.3182242467  MEMB      33              0.0000000000
      4518        33  DOPC      H6X            -9.9735094116       25.9728193952       11.0525670539  MEMB      33              0.0000000000
      4519        33  DOPC      H6Y            -8.4888214231       26.7614939025       10.4125079778  MEMB      33              0.0000000000
      4520        33  DOPC      C37            -8.1218108826       25.0917533632       11.7889020319  MEMB      33              0.0000000000
      4521        33  DOPC      H7X            -7.1282332218       25.4452474493       12.1285065867  MEMB      33              0.0000000000
      4522        33  DOPC      H7Y            -8.6351530395       24.6457282774       12.6688515565  MEMB      33              0.0000000000
      4523        33  DOPC      C38            -7.8432795658       23.9862302733       10.7536881430  MEMB      33              0.0000000000
      4524        33  DOPC      H8X            -7.6362684563       23.0216620819       11.2695875098  MEMB      33              0.0000000000
      4525        33  DOPC      H8Y            -6.9020449445       24.2371698100       10.2156716594  MEMB      33              0.0000000000
      4526        33  DOPC      C39            -8.9989249587       23.8272436882        9.8130956557  MEMB      33              0.0000000000
      4527        33  DOPC      H9X            -9.8094700441       23.1701845594       10.1675158019  MEMB      33              0.0000000000
      4528        33  DOPC      C310           -9.1002780796       24.4084349863        8.6072242020  MEMB      33              0.0000000000
      4529        33  DOPC      H10X          -10.0187775551       24.2316165340        8.0287709971  MEMB      33              0.0000000000
      4530        33  DOPC      C311           -8.0951846374       25.3242650499        7.9487864318  MEMB      33              0.0000000000
      4531        33  DOPC      H11X           -7.1988004766       25.5132786721        8.5786188594  MEMB      33              0.0000000000
      4532        33  DOPC      H11Y           -8.5559940592       26.3162042501        7.7434119285  MEMB      33              0.0000000000
      4533        33  DOPC      C312           -7.6342632784       24.7214998187        6.6155742350  MEMB      33              0.0000000000
      4534        33  DOPC      H12X           -7.1711684118       23.7208235990        6.7709777871  MEMB      33              0.0000000000
      4535        33  DOPC      H12Y           -6.8535171384       25.3764790153        6.1798909811  MEMB      33              0.0000000000
      4536        33  DOPC      C313           -8.7877133003       24.6279855669        5.6191839097  MEMB      33              0.0000000000
      4537        33  DOPC      H13X           -9.5596666853       23.9212635608        5.9941818421  MEMB      33              0.0000000000
      4538        33  DOPC      H13Y           -9.2732202289       25.6256962003        5.5322680381  MEMB      33              0.0000000000
      4539        33  DOPC      C314           -8.3491813819       24.1715042063        4.2376425293  MEMB      33              0.0000000000
      4540        33  DOPC      H14X           -7.6499292547       24.9132769125        3.7902825278  MEMB      33              0.0000000000
      4541        33  DOPC      H14Y           -7.8064948638       23.2026093398        4.3111634280  MEMB      33              0.0000000000
      4542        33  DOPC      C315           -9.5659273509       24.0122276020        3.3356001763  MEMB      33              0.0000000000
      4543        33  DOPC      H15X          -10.0551687005       25.0009191273        3.2224777343  MEMB      33              0.0000000000
      4544        33  DOPC      H15Y          -10.3057743746       23.3202889747        3.7997239543  MEMB      33              0.0000000000
      4545        33  DOPC      C316           -9.1563354206       23.4775319583        1.9706846999  MEMB      33              0.0000000000
      4546        33  DOPC      H16X           -8.4159544083       24.1651779720        1.5159843319  MEMB      33              0.0000000000
      4547        33  DOPC      H16Y           -8.6497039166       22.4995380494        2.1334384832  MEMB      33              0.0000000000
      4548        33  DOPC      C317          -10.3460734380       23.3163318467        1.0274083402  MEMB      33              0.0000000000
      4549        33  DOPC      H17X          -11.2809601825       23.5282531761        1.5943880487  MEMB      33              0.0000000000
      4550        33  DOPC      H17Y          -10.2788844564       24.0726036928        0.2128774749  MEMB      33              0.0000000000
      4551        33  DOPC      C318          -10.4480819824       21.9204736077        0.4264523893  MEMB      33              0.0000000000
      4552        33  DOPC      H18X          -10.3101960465       21.9518883594       -0.6748008561  MEMB      33              0.0000000000
      4553        33  DOPC      H18Y           -9.6702462573       21.2546211015        0.8477110032  MEMB      33              0.0000000000
      4554        33  DOPC      H18Z          -11.4344649079       21.4614143597        0.6431834963  MEMB      33              0.0000000000
      4555        34  DOPC      N             -19.3048780769       18.4080484505       21.0439800932  MEMB      34              0.0000000000
      4556        34  DOPC      C12           -19.7953016108       19.7754030682       20.5578417142  MEMB      34              0.0000000000
      4557        34  DOPC      H12A          -19.2268311284       20.5751452567       21.0161626863  MEMB      34              0.0000000000
      4558        34  DOPC      H12B          -20.8127824932       19.9195180494       20.8995986517  MEMB      34              0.0000000000
      4559        34  DOPC      C13           -17.9384963576       18.1397803595       20.4939386239  MEMB      34              0.0000000000
      4560        34  DOPC      H13A          -17.6557002499       17.1104342211       20.6828313230  MEMB      34              0.0000000000
      4561        34  DOPC      H13B          -17.9522131550       18.3206789796       19.4250031488  MEMB      34              0.0000000000
      4562        34  DOPC      H13C          -17.1802223683       18.7862492590       20.9345115940  MEMB      34              0.0000000000
      4563        34  DOPC      C14           -20.2726283903       17.3564159065       20.5905033860  MEMB      34              0.0000000000
      4564        34  DOPC      H14A          -19.9531228518       16.3547512449       20.8122600908  MEMB      34              0.0000000000
      4565        34  DOPC      H14B          -21.2429014816       17.5297779930       21.0491179620  MEMB      34              0.0000000000
      4566        34  DOPC      H14C          -20.4327213310       17.4847790954       19.5140864894  MEMB      34              0.0000000000
      4567        34  DOPC      C15           -19.2676307135       18.3829055402       22.5311939231  MEMB      34              0.0000000000
      4568        34  DOPC      H15A          -20.2676932397       18.3648582946       22.9482591319  MEMB      34              0.0000000000
      4569        34  DOPC      H15B          -18.7350016970       19.2393902190       22.9297970529  MEMB      34              0.0000000000
      4570        34  DOPC      H15C          -18.7251582130       17.5061480680       22.8622233904  MEMB      34              0.0000000000
      4571        34  DOPC      C11           -19.8133390293       20.0221406887       19.0292003609  MEMB      34              0.0000000000
      4572        34  DOPC      H11A          -20.2968084222       21.0150538398       18.8586653162  MEMB      34              0.0000000000
      4573        34  DOPC      H11B          -18.7831821680       20.0855261048       18.6213949978  MEMB      34              0.0000000000
      4574        34  DOPC      P             -21.2704587053       19.1503973298       17.0156085435  MEMB      34              0.0000000000
      4575        34  DOPC      O13           -21.5100453525       20.5957411748       16.8237321134  MEMB      34              0.0000000000
      4576        34  DOPC      O14           -22.4246667780       18.2253962090       17.0471867101  MEMB      34              0.0000000000
      4577        34  DOPC      O12           -20.5145051179       18.9714597203       18.3859259875  MEMB      34              0.0000000000
      4578        34  DOPC      O11           -20.1584278290       18.6946333419       15.9972069759  MEMB      34              0.0000000000
      4579        34  DOPC      C1            -18.9732823553       17.9726273195       16.3058921985  MEMB      34              0.0000000000
      4580        34  DOPC      HA            -19.0430576459       17.0436625286       15.7219255131  MEMB      34              0.0000000000
      4581        34  DOPC      HB            -18.9111892770       17.6625892550       17.3712484169  MEMB      34              0.0000000000
      4582        34  DOPC      C2            -17.6101114581       18.6709001323       15.9330645577  MEMB      34              0.0000000000
      4583        34  DOPC      HS            -17.4504275302       19.4728657403       16.6878284658  MEMB      34              0.0000000000
      4584        34  DOPC      O21           -17.6198692725       19.2487788380       14.6094405421  MEMB      34              0.0000000000
      4585        34  DOPC      C21           -16.5866420003       20.0548901568       14.3500014189  MEMB      34              0.0000000000
      4586        34  DOPC      O22           -15.7844525428       20.4514762002       15.1799741269  MEMB      34              0.0000000000
      4587        34  DOPC      C22           -16.5881500042       20.4368033271       12.8676994602  MEMB      34              0.0000000000
      4588        34  DOPC      H2R           -15.7677870566       21.1765367291       12.7408843514  MEMB      34              0.0000000000
      4589        34  DOPC      H2S           -17.5503537753       20.9219373889       12.6178506114  MEMB      34              0.0000000000
      4590        34  DOPC      C3            -16.4523925246       17.6216613235       16.0500187117  MEMB      34              0.0000000000
      4591        34  DOPC      HX            -16.1738554480       17.5615175816       17.1231313145  MEMB      34              0.0000000000
      4592        34  DOPC      HY            -15.5393730480       17.9606457152       15.5117426737  MEMB      34              0.0000000000
      4593        34  DOPC      O31           -16.8973615952       16.3142251200       15.6301696226  MEMB      34              0.0000000000
      4594        34  DOPC      C31           -16.6604656362       15.9429920191       14.3689216162  MEMB      34              0.0000000000
      4595        34  DOPC      O32           -15.8854970040       16.4818238369       13.6038755678  MEMB      34              0.0000000000
      4596        34  DOPC      C32           -17.4322810886       14.6483179219       14.0503242082  MEMB      34              0.0000000000
      4597        34  DOPC      H2X           -17.3806047108       14.4890757900       12.9554216934  MEMB      34              0.0000000000
      4598        34  DOPC      H2Y           -16.8789007063       13.8163716702       14.5358248674  MEMB      34              0.0000000000
      4599        34  DOPC      C23           -16.2973762899       19.2398277011       11.9288166476  MEMB      34              0.0000000000
      4600        34  DOPC      H3R           -15.4522065555       18.6547976426       12.3507005972  MEMB      34              0.0000000000
      4601        34  DOPC      H3S           -15.9786746019       19.6416141616       10.9395098921  MEMB      34              0.0000000000
      4602        34  DOPC      C24           -17.4749109328       18.2806298118       11.6795742065  MEMB      34              0.0000000000
      4603        34  DOPC      H4R           -18.3743992839       18.8803859980       11.5022009924  MEMB      34              0.0000000000
      4604        34  DOPC      H4S           -17.6798453732       17.6940838451       12.5956804404  MEMB      34              0.0000000000
      4605        34  DOPC      C25           -17.2074821477       17.3087320615       10.5156709371  MEMB      34              0.0000000000
      4606        34  DOPC      H5R           -16.2080894065       16.8610295525       10.7080491897  MEMB      34              0.0000000000
      4607        34  DOPC      H5S           -17.1583148835       17.8763352344        9.5594677767  MEMB      34              0.0000000000
      4608        34  DOPC      C26           -18.2011317416       16.1407257330       10.3546510915  MEMB      34              0.0000000000
      4609        34  DOPC      H6R           -19.2133020770       16.5406129046       10.1387881681  MEMB      34              0.0000000000
      4610        34  DOPC      H6S           -18.2535670637       15.5741965000       11.3049559603  MEMB      34              0.0000000000
      4611        34  DOPC      C27           -17.7772104994       15.1591202022        9.2446079700  MEMB      34              0.0000000000
      4612        34  DOPC      H7R           -16.7699390469       14.7573831482        9.5001889974  MEMB      34              0.0000000000
      4613        34  DOPC      H7S           -17.6601126615       15.7266192870        8.2999820012  MEMB      34              0.0000000000
      4614        34  DOPC      C28           -18.7115788328       13.9478582904        9.0296331475  MEMB      34              0.0000000000
      4615        34  DOPC      H8R           -18.8367803273       13.4220837062       10.0005690971  MEMB      34              0.0000000000
      4616        34  DOPC      H8S           -18.1724325875       13.2341857712        8.3632937036  MEMB      34              0.0000000000
      4617        34  DOPC      C29           -20.0674749238       14.2801559162        8.4584956220  MEMB      34              0.0000000000
      4618        34  DOPC      H9R           -20.8196063091       14.6083261531        9.1930443954  MEMB      34              0.0000000000
      4619        34  DOPC      C210          -20.3901302418       14.2912970842        7.1530765781  MEMB      34              0.0000000000
      4620        34  DOPC      H10R          -21.4075167177       14.5874449813        6.8534072992  MEMB      34              0.0000000000
      4621        34  DOPC      C211          -19.4625674364       13.9822505890        6.0064520859  MEMB      34              0.0000000000
      4622        34  DOPC      H11R          -20.0179696496       13.5016486702        5.1724679675  MEMB      34              0.0000000000
      4623        34  DOPC      H11S          -18.6643288571       13.2694892954        6.3091859513  MEMB      34              0.0000000000
      4624        34  DOPC      C212          -18.7963293732       15.2869447860        5.5154857716  MEMB      34              0.0000000000
      4625        34  DOPC      H12R          -17.9706597493       15.0769512115        4.8056510440  MEMB      34              0.0000000000
      4626        34  DOPC      H12S          -18.2734758292       15.7370348379        6.3937751897  MEMB      34              0.0000000000
      4627        34  DOPC      C213          -19.8030694709       16.3456517341        4.9951070270  MEMB      34              0.0000000000
      4628        34  DOPC      H13R          -19.2777203748       17.3043708219        4.7983252669  MEMB      34              0.0000000000
      4629        34  DOPC      H13S          -20.4856694756       16.5019320793        5.8530539754  MEMB      34              0.0000000000
      4630        34  DOPC      C214          -20.8051468880       16.0406651287        3.8569207948  MEMB      34              0.0000000000
      4631        34  DOPC      H14R          -21.7200086905       16.6532633594        4.0534509702  MEMB      34              0.0000000000
      4632        34  DOPC      H14S          -21.1124500141       14.9750061676        3.8673303105  MEMB      34              0.0000000000
      4633        34  DOPC      C215          -20.3218376794       16.4649795938        2.4668242509  MEMB      34              0.0000000000
      4634        34  DOPC      H15R          -19.4040578842       15.9031861292        2.2916673005  MEMB      34              0.0000000000
      4635        34  DOPC      H15S          -20.0544633350       17.5433258375        2.4436199424  MEMB      34              0.0000000000
      4636        34  DOPC      C216          -21.2807728272       16.0930230351        1.3306547171  MEMB      34              0.0000000000
      4637        34  DOPC      H16R          -22.3058619219       16.4498997652        1.5653273792  MEMB      34              0.0000000000
      4638        34  DOPC      H16S          -21.3147699051       14.9806538015        1.2689244027  MEMB      34              0.0000000000
      4639        34  DOPC      C217          -20.8802483188       16.6183849022       -0.0556152510  MEMB      34              0.0000000000
      4640        34  DOPC      H17R          -19.8248221345       16.3537423340       -0.2816692279  MEMB      34              0.0000000000
      4641        34  DOPC      H17S          -20.9486586414       17.7297317539       -0.0716436262  MEMB      34              0.0000000000
      4642        34  DOPC      C218          -21.7814295443       16.0190471010       -1.1356312783  MEMB      34              0.0000000000
      4643        34  DOPC      H18R          -22.8302205687       16.3592786953       -0.9798086339  MEMB      34              0.0000000000
      4644        34  DOPC      H18S          -21.7607802259       14.9117250303       -1.0783368059  MEMB      34              0.0000000000
      4645        34  DOPC      H18T          -21.4622221638       16.3183619604       -2.1564653488  MEMB      34              0.0000000000
      4646        34  DOPC      C33           -18.9103115026       14.6134311562       14.5267358377  MEMB      34              0.0000000000
      4647        34  DOPC      H3X           -18.9666705745       14.8627830180       15.6074418329  MEMB      34              0.0000000000
      4648        34  DOPC      H3Y           -19.2856827433       13.5692270793       14.4206428903  MEMB      34              0.0000000000
      4649        34  DOPC      C34           -19.8414693799       15.5181735450       13.7010246170  MEMB      34              0.0000000000
      4650        34  DOPC      H4X           -19.8851244173       15.1599628925       12.6507679747  MEMB      34              0.0000000000
      4651        34  DOPC      H4Y           -19.4269165265       16.5520635305       13.6770235439  MEMB      34              0.0000000000
      4652        34  DOPC      C35           -21.2813613646       15.6048441649       14.2363889639  MEMB      34              0.0000000000
      4653        34  DOPC      H5X           -21.2478276439       15.6777188048       15.3490085076  MEMB      34              0.0000000000
      4654        34  DOPC      H5Y           -21.8443620456       14.6888365744       13.9604888454  MEMB      34              0.0000000000
      4655        34  DOPC      C36           -22.0265057058       16.8586687396       13.7325182726  MEMB      34              0.0000000000
      4656        34  DOPC      H6X           -23.0024206210       16.9465795074       14.2642961620  MEMB      34              0.0000000000
      4657        34  DOPC      H6Y           -21.4272575390       17.7497133143       14.0301627532  MEMB      34              0.0000000000
      4658        34  DOPC      C37           -22.2886405972       16.8908236394       12.2161239062  MEMB      34              0.0000000000
      4659        34  DOPC      H7X           -21.4851007639       16.3386351152       11.6828887096  MEMB      34              0.0000000000
      4660        34  DOPC      H7Y           -23.2436188709       16.3463959976       12.0371773981  MEMB      34              0.0000000000
      4661        34  DOPC      C38           -22.3970986345       18.3136865871       11.6230541044  MEMB      34              0.0000000000
      4662        34  DOPC      H8X           -22.9893553268       18.9582235956       12.3093457077  MEMB      34              0.0000000000
      4663        34  DOPC      H8Y           -22.9767543713       18.2621934480       10.6828291996  MEMB      34              0.0000000000
      4664        34  DOPC      C39           -21.0505137972       18.9234707620       11.3347834376  MEMB      34              0.0000000000
      4665        34  DOPC      H9X           -20.4787774584       19.2337003555       12.2267142753  MEMB      34              0.0000000000
      4666        34  DOPC      C310          -20.5067580188       19.0820024648       10.1104036635  MEMB      34              0.0000000000
      4667        34  DOPC      H10X          -19.5296259555       19.5794659742       10.0279245420  MEMB      34              0.0000000000
      4668        34  DOPC      C311          -21.1039135233       18.6967956609        8.7810569945  MEMB      34              0.0000000000
      4669        34  DOPC      H11X          -21.7449119347       19.5117171712        8.3808096073  MEMB      34              0.0000000000
      4670        34  DOPC      H11Y          -21.7687123151       17.8104552623        8.8844090953  MEMB      34              0.0000000000
      4671        34  DOPC      C312          -20.0623128930       18.3583835899        7.6937490067  MEMB      34              0.0000000000
      4672        34  DOPC      H12X          -20.6798820304       18.1335253926        6.7993044789  MEMB      34              0.0000000000
      4673        34  DOPC      H12Y          -19.4999312024       17.4415480609        7.9801984248  MEMB      34              0.0000000000
      4674        34  DOPC      C313          -19.0821479849       19.4584421102        7.2370706994  MEMB      34              0.0000000000
      4675        34  DOPC      H13X          -18.8174640658       20.1455214614        8.0643356662  MEMB      34              0.0000000000
      4676        34  DOPC      H13Y          -18.1385608809       18.9613540041        6.9062178884  MEMB      34              0.0000000000
      4677        34  DOPC      C314          -19.6313032809       20.2262123568        6.0218610290  MEMB      34              0.0000000000
      4678        34  DOPC      H14X          -19.8445876196       19.4903918258        5.2145178600  MEMB      34              0.0000000000
      4679        34  DOPC      H14Y          -20.5954774330       20.7066693476        6.2992239080  MEMB      34              0.0000000000
      4680        34  DOPC      C315          -18.6781805885       21.2827323006        5.4453815351  MEMB      34              0.0000000000
      4681        34  DOPC      H15X          -17.6254355814       20.9410004880        5.4995905546  MEMB      34              0.0000000000
      4682        34  DOPC      H15Y          -18.7437101929       22.1873702499        6.0726553637  MEMB      34              0.0000000000
      4683        34  DOPC      C316          -19.0426555749       21.6988628110        4.0102418635  MEMB      34              0.0000000000
      4684        34  DOPC      H16X          -20.1526604292       21.7439290464        3.9300488187  MEMB      34              0.0000000000
      4685        34  DOPC      H16Y          -18.6570122162       22.7276093979        3.8233727265  MEMB      34              0.0000000000
      4686        34  DOPC      C317          -18.4938832656       20.7666643749        2.9189110627  MEMB      34              0.0000000000
      4687        34  DOPC      H17X          -18.9568561496       19.7602533043        3.0423328813  MEMB      34              0.0000000000
      4688        34  DOPC      H17Y          -18.8350375680       21.1595084575        1.9332539370  MEMB      34              0.0000000000
      4689        34  DOPC      C318          -16.9658287862       20.6115345013        2.8793718958  MEMB      34              0.0000000000
      4690        34  DOPC      H18X          -16.5821903634       20.8087039662        1.8528435572  MEMB      34              0.0000000000
      4691        34  DOPC      H18Y          -16.4617598917       21.3138701923        3.5748965427  MEMB      34              0.0000000000
      4692        34  DOPC      H18Z          -16.6806424080       19.5723665319        3.1561513036  MEMB      34              0.0000000000
      4693        35  DOPC      N              25.4395387739      -11.3912741844       20.9526253176  MEMB      35              0.0000000000
      4694        35  DOPC      C12            26.5231680222      -11.4583705817       19.8828885030  MEMB      35              0.0000000000
      4695        35  DOPC      H12A           27.3878517010      -11.9592299924       20.2913630544  MEMB      35              0.0000000000
      4696        35  DOPC      H12B           26.8161616127      -10.4281255957       19.6724165354  MEMB      35              0.0000000000
      4697        35  DOPC      C13            24.2257691853      -10.6804439435       20.4135856293  MEMB      35              0.0000000000
      4698        35  DOPC      H13A           23.4416665360      -10.6072555572       21.1618674813  MEMB      35              0.0000000000
      4699        35  DOPC      H13B           24.4930225594       -9.6880721588       20.0458874753  MEMB      35              0.0000000000
      4700        35  DOPC      H13C           23.8322220354      -11.2119317384       19.5496637606  MEMB      35              0.0000000000
      4701        35  DOPC      C14            25.9663520054      -10.5782193780       22.0904258138  MEMB      35              0.0000000000
      4702        35  DOPC      H14A           26.9780093903      -10.8621313667       22.3525607051  MEMB      35              0.0000000000
      4703        35  DOPC      H14B           25.9775327292       -9.5273333885       21.8070294150  MEMB      35              0.0000000000
      4704        35  DOPC      H14C           25.3392738168      -10.6785227813       22.9654933509  MEMB      35              0.0000000000
      4705        35  DOPC      C15            25.0355031727      -12.7595575371       21.4181828806  MEMB      35              0.0000000000
      4706        35  DOPC      H15A           24.1089472592      -12.7027928468       21.9896413312  MEMB      35              0.0000000000
      4707        35  DOPC      H15B           25.7824176655      -13.2449196394       22.0380762560  MEMB      35              0.0000000000
      4708        35  DOPC      H15C           24.8250012155      -13.3836071532       20.5580740101  MEMB      35              0.0000000000
      4709        35  DOPC      C11            26.1713162873      -12.0859317400       18.5074483114  MEMB      35              0.0000000000
      4710        35  DOPC      H11A           27.1109099202      -12.3382444166       17.9578326112  MEMB      35              0.0000000000
      4711        35  DOPC      H11B           25.6106864564      -13.0335937622       18.6470921861  MEMB      35              0.0000000000
      4712        35  DOPC      P              25.9971282911       -9.7853065467       17.3605910582  MEMB      35              0.0000000000
      4713        35  DOPC      O13            27.4199255777       -9.9708903717       17.0087925476  MEMB      35              0.0000000000
      4714        35  DOPC      O14            25.7311107632       -8.8854813673       18.5140281611  MEMB      35              0.0000000000
      4715        35  DOPC      O12            25.3750987540      -11.2037483935       17.7253753060  MEMB      35              0.0000000000
      4716        35  DOPC      O11            25.1395611814       -9.3788997712       16.1009000863  MEMB      35              0.0000000000
      4717        35  DOPC      C1             25.7498249864       -9.0559784896       14.8489328031  MEMB      35              0.0000000000
      4718        35  DOPC      HA             26.5577061165       -8.2949588639       14.9646885590  MEMB      35              0.0000000000
      4719        35  DOPC      HB             24.9665927128       -8.5991614400       14.2065592390  MEMB      35              0.0000000000
      4720        35  DOPC      C2             26.3298798369      -10.2971992018       14.1035872602  MEMB      35              0.0000000000
      4721        35  DOPC      HS             27.2462639744      -10.6117521130       14.6555836508  MEMB      35              0.0000000000
      4722        35  DOPC      O21            26.5822435156       -9.9475092024       12.7207722605  MEMB      35              0.0000000000
      4723        35  DOPC      C21            27.8146783475      -10.2026588422       12.2983022187  MEMB      35              0.0000000000
      4724        35  DOPC      O22            28.7918758187      -10.3874144922       12.9997615736  MEMB      35              0.0000000000
      4725        35  DOPC      C22            27.8129513326      -10.2970544707       10.7776579921  MEMB      35              0.0000000000
      4726        35  DOPC      H2R            28.0859189603       -9.3056561607       10.3628681842  MEMB      35              0.0000000000
      4727        35  DOPC      H2S            26.7832464463      -10.5490818245       10.4520439473  MEMB      35              0.0000000000
      4728        35  DOPC      C3             25.3643124064      -11.5260705903       14.1261070820  MEMB      35              0.0000000000
      4729        35  DOPC      HX             24.3804914114      -11.1264558894       13.8055871961  MEMB      35              0.0000000000
      4730        35  DOPC      HY             25.2575295316      -11.8987572192       15.1695799877  MEMB      35              0.0000000000
      4731        35  DOPC      O31            25.8386662690      -12.5687850760       13.2314887221  MEMB      35              0.0000000000
      4732        35  DOPC      C31            24.8928695226      -13.2738012928       12.6030468787  MEMB      35              0.0000000000
      4733        35  DOPC      O32            23.7324022730      -13.3701371770       12.9403346560  MEMB      35              0.0000000000
      4734        35  DOPC      C32            25.4901666958      -13.8800834099       11.3089882992  MEMB      35              0.0000000000
      4735        35  DOPC      H2X            26.0288025802      -13.0420082480       10.8244274315  MEMB      35              0.0000000000
      4736        35  DOPC      H2Y            26.2299972780      -14.6463281754       11.6147780337  MEMB      35              0.0000000000
      4737        35  DOPC      C23            28.8170976444      -11.3740382965       10.3033680244  MEMB      35              0.0000000000
      4738        35  DOPC      H3R            28.6706464296      -12.3144916709       10.8852601810  MEMB      35              0.0000000000
      4739        35  DOPC      H3S            29.8549213436      -11.0186178886       10.5037957386  MEMB      35              0.0000000000
      4740        35  DOPC      C24            28.6818716978      -11.7229022111        8.8155318423  MEMB      35              0.0000000000
      4741        35  DOPC      H4R            29.5026838213      -12.4250537652        8.5463100243  MEMB      35              0.0000000000
      4742        35  DOPC      H4S            28.8098504432      -10.8024489645        8.2028907806  MEMB      35              0.0000000000
      4743        35  DOPC      C25            27.3328189370      -12.3788230562        8.4850243312  MEMB      35              0.0000000000
      4744        35  DOPC      H5R            26.5260951796      -11.6234795183        8.6292630711  MEMB      35              0.0000000000
      4745        35  DOPC      H5S            27.1557292442      -13.2249060374        9.1773522435  MEMB      35              0.0000000000
      4746        35  DOPC      C26            27.2172685260      -12.8845269456        7.0467055728  MEMB      35              0.0000000000
      4747        35  DOPC      H6R            27.5424902743      -12.0478394646        6.3927115748  MEMB      35              0.0000000000
      4748        35  DOPC      H6S            26.1519226869      -13.0908502594        6.8019717882  MEMB      35              0.0000000000
      4749        35  DOPC      C27            28.0166174476      -14.1587714166        6.7279697016  MEMB      35              0.0000000000
      4750        35  DOPC      H7R            27.3748494993      -15.0427840596        6.9488380942  MEMB      35              0.0000000000
      4751        35  DOPC      H7S            28.8973518072      -14.2492987908        7.4020955171  MEMB      35              0.0000000000
      4752        35  DOPC      C28            28.4710965712      -14.1745938547        5.2522963759  MEMB      35              0.0000000000
      4753        35  DOPC      H8R            27.5681563037      -14.1177253860        4.6051725125  MEMB      35              0.0000000000
      4754        35  DOPC      H8S            28.9311156629      -15.1653679964        5.0399293658  MEMB      35              0.0000000000
      4755        35  DOPC      C29            29.4435097410      -13.0358762744        4.9901260847  MEMB      35              0.0000000000
      4756        35  DOPC      H9R            30.2925408707      -12.9984259436        5.6875960344  MEMB      35              0.0000000000
      4757        35  DOPC      C210           29.4203078898      -12.1475240185        3.9723248400  MEMB      35              0.0000000000
      4758        35  DOPC      H10R           30.2427631329      -11.4243750655        3.8464982904  MEMB      35              0.0000000000
      4759        35  DOPC      C211           28.3915243194      -12.1509490960        2.8821279444  MEMB      35              0.0000000000
      4760        35  DOPC      H11R           27.3445091976      -12.2217082908        3.2641198179  MEMB      35              0.0000000000
      4761        35  DOPC      H11S           28.6185846948      -13.1208413779        2.4086850410  MEMB      35              0.0000000000
      4762        35  DOPC      C212           28.4500698034      -11.0119650569        1.8276747059  MEMB      35              0.0000000000
      4763        35  DOPC      H12R           28.0275289694      -11.3406689534        0.8538607686  MEMB      35              0.0000000000
      4764        35  DOPC      H12S           29.4961020937      -10.7390336301        1.5841165625  MEMB      35              0.0000000000
      4765        35  DOPC      C213           27.6506689458       -9.7794346890        2.2805588401  MEMB      35              0.0000000000
      4766        35  DOPC      H13R           28.0778365764       -9.4564421636        3.2574998330  MEMB      35              0.0000000000
      4767        35  DOPC      H13S           26.5848542320      -10.0513720980        2.4603704869  MEMB      35              0.0000000000
      4768        35  DOPC      C214           27.7167055162       -8.5993946142        1.3005632049  MEMB      35              0.0000000000
      4769        35  DOPC      H14R           28.4871988583       -8.7903519653        0.5220325364  MEMB      35              0.0000000000
      4770        35  DOPC      H14S           28.0392762776       -7.6983129261        1.8724387800  MEMB      35              0.0000000000
      4771        35  DOPC      C215           26.3902604582       -8.2673761567        0.5993775125  MEMB      35              0.0000000000
      4772        35  DOPC      H15R           25.5363632771       -8.3144029566        1.3121064545  MEMB      35              0.0000000000
      4773        35  DOPC      H15S           26.2060337671       -9.0229117730       -0.1974238511  MEMB      35              0.0000000000
      4774        35  DOPC      C216           26.4415163398       -6.8594328726       -0.0058804599  MEMB      35              0.0000000000
      4775        35  DOPC      H16R           27.4847383134       -6.6360867903       -0.3271648725  MEMB      35              0.0000000000
      4776        35  DOPC      H16S           26.1818596017       -6.1144751186        0.7809551448  MEMB      35              0.0000000000
      4777        35  DOPC      C217           25.5260818585       -6.6672684601       -1.2123063287  MEMB      35              0.0000000000
      4778        35  DOPC      H17R           25.0859772582       -7.6351708953       -1.5380444012  MEMB      35              0.0000000000
      4779        35  DOPC      H17S           26.1382667782       -6.2732895147       -2.0575756091  MEMB      35              0.0000000000
      4780        35  DOPC      C218           24.4107280033       -5.6741429135       -0.9500924780  MEMB      35              0.0000000000
      4781        35  DOPC      H18R           23.9052709009       -5.4563140181       -1.9141964178  MEMB      35              0.0000000000
      4782        35  DOPC      H18S           24.8347331203       -4.7370130561       -0.5304545962  MEMB      35              0.0000000000
      4783        35  DOPC      H18T           23.6602161086       -6.0627402769       -0.2349467206  MEMB      35              0.0000000000
      4784        35  DOPC      C33            24.4463877222      -14.4675980984       10.2913860492  MEMB      35              0.0000000000
      4785        35  DOPC      H3X            23.9534300467      -13.6156174324        9.7757298226  MEMB      35              0.0000000000
      4786        35  DOPC      H3Y            23.6626283182      -15.0220992757       10.8587728723  MEMB      35              0.0000000000
      4787        35  DOPC      C34            25.0291177326      -15.4396864948        9.2233602814  MEMB      35              0.0000000000
      4788        35  DOPC      H4X            25.0710027412      -16.4468729764        9.6878754700  MEMB      35              0.0000000000
      4789        35  DOPC      H4Y            26.0619787853      -15.1084903876        8.9882342548  MEMB      35              0.0000000000
      4790        35  DOPC      C35            24.3114670871      -15.5701767185        7.8505110399  MEMB      35              0.0000000000
      4791        35  DOPC      H5X            24.4825085300      -14.6131757563        7.3061491085  MEMB      35              0.0000000000
      4792        35  DOPC      H5Y            23.2148648829      -15.6699599702        7.9844015666  MEMB      35              0.0000000000
      4793        35  DOPC      C36            24.8577179112      -16.7213737937        6.9379991978  MEMB      35              0.0000000000
      4794        35  DOPC      H6X            25.5910085784      -16.2751606821        6.2417417678  MEMB      35              0.0000000000
      4795        35  DOPC      H6Y            25.3893342836      -17.4711129982        7.5583361619  MEMB      35              0.0000000000
      4796        35  DOPC      C37            23.8014370159      -17.4914944631        6.1102729740  MEMB      35              0.0000000000
      4797        35  DOPC      H7X            23.3005127612      -18.1729467890        6.8296349370  MEMB      35              0.0000000000
      4798        35  DOPC      H7Y            23.0097381425      -16.7852052095        5.8571082649  MEMB      35              0.0000000000
      4799        35  DOPC      C38            24.2181578332      -18.2804664024        4.7943151010  MEMB      35              0.0000000000
      4800        35  DOPC      H8X            24.7094560401      -19.2155880141        5.1344640902  MEMB      35              0.0000000000
      4801        35  DOPC      H8Y            23.2634569700      -18.5946977622        4.3132322262  MEMB      35              0.0000000000
      4802        35  DOPC      C39            25.1459439818      -17.7023679039        3.7359187924  MEMB      35              0.0000000000
      4803        35  DOPC      H9X            26.1648171840      -17.5003986202        4.1423802646  MEMB      35              0.0000000000
      4804        35  DOPC      C310           25.0783271730      -17.4438170310        2.4016328207  MEMB      35              0.0000000000
      4805        35  DOPC      H10X           26.0943313472      -17.1801999019        2.1246597566  MEMB      35              0.0000000000
      4806        35  DOPC      C311           24.1301235487      -17.5158983183        1.1744862317  MEMB      35              0.0000000000
      4807        35  DOPC      H11X           23.3029436246      -18.2145112048        1.4359728627  MEMB      35              0.0000000000
      4808        35  DOPC      H11Y           24.6635234359      -18.0427200910        0.3524534549  MEMB      35              0.0000000000
      4809        35  DOPC      C312           23.3448675032      -16.3257661660        0.4475504309  MEMB      35              0.0000000000
      4810        35  DOPC      H12X           22.8797939339      -15.7953546105        1.3089368157  MEMB      35              0.0000000000
      4811        35  DOPC      H12Y           22.5400045675      -16.8052073800       -0.1217484583  MEMB      35              0.0000000000
      4812        35  DOPC      C313           23.9425898815      -15.1573281939       -0.4547255806  MEMB      35              0.0000000000
      4813        35  DOPC      H13X           23.2225634388      -14.3119477643       -0.3359694918  MEMB      35              0.0000000000
      4814        35  DOPC      H13Y           24.8036793832      -14.9519741405        0.1213853097  MEMB      35              0.0000000000
      4815        35  DOPC      C314           24.2853823936      -15.2235689887       -1.9930007098  MEMB      35              0.0000000000
      4816        35  DOPC      H14X           23.2603617101      -15.2718523049       -2.4099639604  MEMB      35              0.0000000000
      4817        35  DOPC      H14Y           24.8075658134      -16.1453614044       -2.2474871975  MEMB      35              0.0000000000
      4818        35  DOPC      C315           24.9651157002      -14.2212679525       -3.0310382395  MEMB      35              0.0000000000
      4819        35  DOPC      H15X           24.1407881263      -13.6044758953       -3.3923549966  MEMB      35              0.0000000000
      4820        35  DOPC      H15Y           25.2171084915      -14.8633553349       -3.9074240560  MEMB      35              0.0000000000
      4821        35  DOPC      C316           26.1319383966      -13.1844893523       -2.9450869227  MEMB      35              0.0000000000
      4822        35  DOPC      H16X           25.9830541076      -12.5722246107       -3.8761510181  MEMB      35              0.0000000000
      4823        35  DOPC      H16Y           26.0320813432      -12.4517158822       -2.1382632341  MEMB      35              0.0000000000
      4824        35  DOPC      C317           27.5905033682      -13.6481493666       -3.1015618455  MEMB      35              0.0000000000
      4825        35  DOPC      H17X           27.6714312412      -14.7169224344       -2.8958896096  MEMB      35              0.0000000000
      4826        35  DOPC      H17Y           27.9176242802      -13.4892892714       -4.1569237376  MEMB      35              0.0000000000
      4827        35  DOPC      C318           28.6431161572      -13.0539557048       -2.1722936522  MEMB      35              0.0000000000
      4828        35  DOPC      H18X           29.5802582794      -13.5669680525       -2.4337659659  MEMB      35              0.0000000000
      4829        35  DOPC      H18Y           28.7620366535      -11.9609193487       -2.2598255905  MEMB      35              0.0000000000
      4830        35  DOPC      H18Z           28.5865529559      -13.3191113939       -1.1143984445  MEMB      35              0.0000000000
      4831        36  DOPC      N             -28.1257308810       -6.3915385097       19.9713230280  MEMB      36              0.0000000000
      4832        36  DOPC      C12           -28.4073808895       -5.6359125014       18.6805824808  MEMB      36              0.0000000000
      4833        36  DOPC      H12A          -29.0439643956       -4.7848005487       18.9194467099  MEMB      36              0.0000000000
      4834        36  DOPC      H12B          -28.9579346309       -6.2764156967       18.0118893294  MEMB      36              0.0000000000
      4835        36  DOPC      C13           -27.3893658388       -5.4633952392       20.8920603794  MEMB      36              0.0000000000
      4836        36  DOPC      H13A          -26.8095208924       -5.9601403259       21.6530507292  MEMB      36              0.0000000000
      4837        36  DOPC      H13B          -26.6808184890       -4.9122316439       20.2721028183  MEMB      36              0.0000000000
      4838        36  DOPC      H13C          -28.0310832994       -4.6956468399       21.3172097806  MEMB      36              0.0000000000
      4839        36  DOPC      C14           -27.2649917848       -7.5520789151       19.6677721160  MEMB      36              0.0000000000
      4840        36  DOPC      H14A          -27.7756053643       -8.2708195955       19.0474687537  MEMB      36              0.0000000000
      4841        36  DOPC      H14B          -26.3896033294       -7.1785467751       19.1413463978  MEMB      36              0.0000000000
      4842        36  DOPC      H14C          -26.9354518926       -8.0432626600       20.5795578160  MEMB      36              0.0000000000
      4843        36  DOPC      C15           -29.3852274579       -6.9078455910       20.6042198661  MEMB      36              0.0000000000
      4844        36  DOPC      H15A          -29.1484874386       -7.5010751266       21.4856556205  MEMB      36              0.0000000000
      4845        36  DOPC      H15B          -29.9176647117       -7.5793072924       19.9360291761  MEMB      36              0.0000000000
      4846        36  DOPC      H15C          -30.0285348649       -6.0890797621       20.9032549802  MEMB      36              0.0000000000
      4847        36  DOPC      C11           -27.1863127906       -5.0550984660       17.9070972844  MEMB      36              0.0000000000
      4848        36  DOPC      H11A          -26.4418505002       -5.8459852531       17.7040579048  MEMB      36              0.0000000000
      4849        36  DOPC      H11B          -27.5218937292       -4.6834016263       16.9071645575  MEMB      36              0.0000000000
      4850        36  DOPC      P             -27.1573654734       -2.5902035329       18.6509013485  MEMB      36              0.0000000000
      4851        36  DOPC      O13           -26.4491159713       -1.8145372602       19.6949117208  MEMB      36              0.0000000000
      4852        36  DOPC      O14           -28.6296434126       -2.7576544939       18.7463928500  MEMB      36              0.0000000000
      4853        36  DOPC      O12           -26.5293912687       -4.0315441069       18.6513258133  MEMB      36              0.0000000000
      4854        36  DOPC      O11           -26.7064206517       -2.1480044765       17.2172190127  MEMB      36              0.0000000000
      4855        36  DOPC      C1            -25.7995533101       -1.0493804622       17.0870225704  MEMB      36              0.0000000000
      4856        36  DOPC      HA            -24.8022292973       -1.3619557672       17.4678095875  MEMB      36              0.0000000000
      4857        36  DOPC      HB            -26.1607127917       -0.1672129605       17.6710158060  MEMB      36              0.0000000000
      4858        36  DOPC      C2            -25.6683318591       -0.5473067323       15.6096515071  MEMB      36              0.0000000000
      4859        36  DOPC      HS            -25.9423012338        0.5353238639       15.5797533259  MEMB      36              0.0000000000
      4860        36  DOPC      O21           -26.5238573306       -1.2888899295       14.7109673520  MEMB      36              0.0000000000
      4861        36  DOPC      C21           -27.8141217267       -1.1068768392       15.0495006482  MEMB      36              0.0000000000
      4862        36  DOPC      O22           -28.1964345680       -0.2278426711       15.8000888104  MEMB      36              0.0000000000
      4863        36  DOPC      C22           -28.7417731613       -2.1376806410       14.3850187108  MEMB      36              0.0000000000
      4864        36  DOPC      H2R           -29.7157861522       -2.0500699920       14.9086862965  MEMB      36              0.0000000000
      4865        36  DOPC      H2S           -28.3480857760       -3.1410233697       14.6277843932  MEMB      36              0.0000000000
      4866        36  DOPC      C3            -24.2074329170       -0.6374993355       15.1111726859  MEMB      36              0.0000000000
      4867        36  DOPC      HX            -23.5824466685        0.1242879731       15.6250580095  MEMB      36              0.0000000000
      4868        36  DOPC      HY            -24.2634431058       -0.3924614159       14.0230559699  MEMB      36              0.0000000000
      4869        36  DOPC      O31           -23.6827050454       -1.9484205871       15.3836300194  MEMB      36              0.0000000000
      4870        36  DOPC      C31           -23.3527369639       -2.6297541548       14.2961145107  MEMB      36              0.0000000000
      4871        36  DOPC      O32           -22.8409924505       -2.1624504132       13.2952933106  MEMB      36              0.0000000000
      4872        36  DOPC      C32           -23.8296412765       -4.0601136515       14.4732961541  MEMB      36              0.0000000000
      4873        36  DOPC      H2X           -22.9384021536       -4.7129392410       14.5327326069  MEMB      36              0.0000000000
      4874        36  DOPC      H2Y           -24.3885152845       -4.1484821009       15.4293522870  MEMB      36              0.0000000000
      4875        36  DOPC      C23           -28.9751482451       -1.9732703600       12.8523794798  MEMB      36              0.0000000000
      4876        36  DOPC      H3R           -29.8986871374       -1.3669958667       12.7030744162  MEMB      36              0.0000000000
      4877        36  DOPC      H3S           -29.1698160874       -2.9790565072       12.4153228196  MEMB      36              0.0000000000
      4878        36  DOPC      C24           -27.8085921715       -1.2963358774       12.1229883150  MEMB      36              0.0000000000
      4879        36  DOPC      H4R           -26.8685557607       -1.8608678802       12.3133785906  MEMB      36              0.0000000000
      4880        36  DOPC      H4S           -27.6684899752       -0.2798042370       12.5514629260  MEMB      36              0.0000000000
      4881        36  DOPC      C25           -27.9613993119       -1.1128025073       10.6136313123  MEMB      36              0.0000000000
      4882        36  DOPC      H5R           -29.0204198187       -0.9602553927       10.3121248281  MEMB      36              0.0000000000
      4883        36  DOPC      H5S           -27.5983124777       -2.0404815343       10.1151883523  MEMB      36              0.0000000000
      4884        36  DOPC      C26           -27.1253557543        0.0905711794       10.1474863546  MEMB      36              0.0000000000
      4885        36  DOPC      H6R           -26.2556682759        0.2089410400       10.8286551830  MEMB      36              0.0000000000
      4886        36  DOPC      H6S           -27.7246230329        1.0235684816       10.1936438644  MEMB      36              0.0000000000
      4887        36  DOPC      C27           -26.5851114106       -0.1099200354        8.7424779116  MEMB      36              0.0000000000
      4888        36  DOPC      H7R           -27.3610863733       -0.6534056733        8.1658655070  MEMB      36              0.0000000000
      4889        36  DOPC      H7S           -25.7267457247       -0.8174707268        8.8073867311  MEMB      36              0.0000000000
      4890        36  DOPC      C28           -26.1142790530        1.1833905248        8.0066389033  MEMB      36              0.0000000000
      4891        36  DOPC      H8R           -25.0323151875        1.0090776027        7.8336944182  MEMB      36              0.0000000000
      4892        36  DOPC      H8S           -26.1567796880        2.0344346054        8.7221763276  MEMB      36              0.0000000000
      4893        36  DOPC      C29           -26.7299523244        1.5748658004        6.6704395730  MEMB      36              0.0000000000
      4894        36  DOPC      H9R           -27.0923900322        2.6115288034        6.5831049380  MEMB      36              0.0000000000
      4895        36  DOPC      C210          -26.7742913910        0.7835284535        5.5794179681  MEMB      36              0.0000000000
      4896        36  DOPC      H10R          -27.2092636152        1.1284080434        4.6245749888  MEMB      36              0.0000000000
      4897        36  DOPC      C211          -26.1906661940       -0.5919038763        5.6061008931  MEMB      36              0.0000000000
      4898        36  DOPC      H11R          -26.1803514041       -1.0082302494        6.6223889343  MEMB      36              0.0000000000
      4899        36  DOPC      H11S          -25.1255473366       -0.4603200478        5.4062073251  MEMB      36              0.0000000000
      4900        36  DOPC      C212          -26.7295161849       -1.7966809108        4.8364996520  MEMB      36              0.0000000000
      4901        36  DOPC      H12R          -26.7528748732       -1.6204998649        3.7407914146  MEMB      36              0.0000000000
      4902        36  DOPC      H12S          -27.7694590921       -2.0154724316        5.1707853956  MEMB      36              0.0000000000
      4903        36  DOPC      C213          -25.7928079868       -2.9597811070        5.2248487359  MEMB      36              0.0000000000
      4904        36  DOPC      H13R          -26.1570156012       -3.9143663480        4.7956304612  MEMB      36              0.0000000000
      4905        36  DOPC      H13S          -25.8139458299       -3.0724409505        6.3329233857  MEMB      36              0.0000000000
      4906        36  DOPC      C214          -24.3258721702       -2.7340142026        4.8033185287  MEMB      36              0.0000000000
      4907        36  DOPC      H14R          -23.7431354802       -3.6389600525        5.0279846099  MEMB      36              0.0000000000
      4908        36  DOPC      H14S          -23.8288211048       -1.9238311207        5.3748007550  MEMB      36              0.0000000000
      4909        36  DOPC      C215          -24.1753075810       -2.4117162662        3.3239741280  MEMB      36              0.0000000000
      4910        36  DOPC      H15R          -23.0890945834       -2.3868781051        3.0881253920  MEMB      36              0.0000000000
      4911        36  DOPC      H15S          -24.6043959950       -1.4049067829        3.1195484550  MEMB      36              0.0000000000
      4912        36  DOPC      C216          -24.8923789998       -3.4207652573        2.4431252735  MEMB      36              0.0000000000
      4913        36  DOPC      H16R          -25.9701086312       -3.4226252859        2.7097446576  MEMB      36              0.0000000000
      4914        36  DOPC      H16S          -24.5084368019       -4.4361540632        2.6642293875  MEMB      36              0.0000000000
      4915        36  DOPC      C217          -24.8019433140       -3.1112668812        0.9551666372  MEMB      36              0.0000000000
      4916        36  DOPC      H17R          -24.8903730323       -4.0577403388        0.3723632796  MEMB      36              0.0000000000
      4917        36  DOPC      H17S          -23.8190706832       -2.6555346170        0.7048162602  MEMB      36              0.0000000000
      4918        36  DOPC      C218          -25.9412658508       -2.1977734997        0.5411691678  MEMB      36              0.0000000000
      4919        36  DOPC      H18R          -26.9221037397       -2.6243728186        0.8364310224  MEMB      36              0.0000000000
      4920        36  DOPC      H18S          -25.9289619412       -2.0981602480       -0.5558876561  MEMB      36              0.0000000000
      4921        36  DOPC      H18T          -25.8473163310       -1.1960390899        1.0098238523  MEMB      36              0.0000000000
      4922        36  DOPC      C33           -24.7493087819       -4.4707437060       13.3034314941  MEMB      36              0.0000000000
      4923        36  DOPC      H3X           -24.4212744472       -5.4637186355       12.9355382503  MEMB      36              0.0000000000
      4924        36  DOPC      H3Y           -24.6619693511       -3.7595905842       12.4462163787  MEMB      36              0.0000000000
      4925        36  DOPC      C34           -26.2276212844       -4.5610875304       13.6889476927  MEMB      36              0.0000000000
      4926        36  DOPC      H4X           -26.5762549814       -3.5130471065       13.7372974065  MEMB      36              0.0000000000
      4927        36  DOPC      H4Y           -26.3279699652       -4.9972533623       14.7086478606  MEMB      36              0.0000000000
      4928        36  DOPC      C35           -27.1060872556       -5.3607357028       12.7035666239  MEMB      36              0.0000000000
      4929        36  DOPC      H5X           -28.1713484257       -5.0642500804       12.8324590327  MEMB      36              0.0000000000
      4930        36  DOPC      H5Y           -27.0340139688       -6.4376085968       12.9725337013  MEMB      36              0.0000000000
      4931        36  DOPC      C36           -26.6990709433       -5.2239548266       11.2249552421  MEMB      36              0.0000000000
      4932        36  DOPC      H6X           -27.0098651720       -4.2361302743       10.8314289871  MEMB      36              0.0000000000
      4933        36  DOPC      H6Y           -25.5921340740       -5.2704402067       11.1410003876  MEMB      36              0.0000000000
      4934        36  DOPC      C37           -27.1837839525       -6.3677210829       10.3106401205  MEMB      36              0.0000000000
      4935        36  DOPC      H7X           -26.6890443833       -6.2567504094        9.3184748129  MEMB      36              0.0000000000
      4936        36  DOPC      H7Y           -26.8167773333       -7.3258034955       10.7460316326  MEMB      36              0.0000000000
      4937        36  DOPC      C38           -28.7068521808       -6.4805703462       10.1126741795  MEMB      36              0.0000000000
      4938        36  DOPC      H8X           -29.1975560792       -6.5074736609       11.1099545156  MEMB      36              0.0000000000
      4939        36  DOPC      H8Y           -28.8898710829       -7.4756114627        9.6458700991  MEMB      36              0.0000000000
      4940        36  DOPC      C39           -29.2872245257       -5.3681985013        9.2710555081  MEMB      36              0.0000000000
      4941        36  DOPC      H9X           -29.1186423072       -4.3559437371        9.6694083024  MEMB      36              0.0000000000
      4942        36  DOPC      C310          -29.9634656991       -5.5054096118        8.1123789964  MEMB      36              0.0000000000
      4943        36  DOPC      H10X          -30.3171758893       -4.6017543254        7.5917877551  MEMB      36              0.0000000000
      4944        36  DOPC      C311          -30.2892649308       -6.7988436685        7.4037197483  MEMB      36              0.0000000000
      4945        36  DOPC      H11X          -31.2707848325       -6.7173754295        6.8850598661  MEMB      36              0.0000000000
      4946        36  DOPC      H11Y          -30.3886630664       -7.6429242852        8.1224976041  MEMB      36              0.0000000000
      4947        36  DOPC      C312          -29.2203454381       -7.1810981193        6.3638079196  MEMB      36              0.0000000000
      4948        36  DOPC      H12X          -29.4868923403       -8.1721780535        5.9308604502  MEMB      36              0.0000000000
      4949        36  DOPC      H12Y          -28.2302377044       -7.2871366914        6.8628548886  MEMB      36              0.0000000000
      4950        36  DOPC      C313          -29.1103628373       -6.1660434211        5.2218655179  MEMB      36              0.0000000000
      4951        36  DOPC      H13X          -30.1232279792       -5.9478473190        4.8156505586  MEMB      36              0.0000000000
      4952        36  DOPC      H13Y          -28.6895484542       -5.2132323111        5.6179925127  MEMB      36              0.0000000000
      4953        36  DOPC      C314          -28.2150732198       -6.6487595602        4.0810695096  MEMB      36              0.0000000000
      4954        36  DOPC      H14X          -27.2135790439       -6.9089739858        4.4932453050  MEMB      36              0.0000000000
      4955        36  DOPC      H14Y          -28.6453415756       -7.5668367187        3.6211734342  MEMB      36              0.0000000000
      4956        36  DOPC      C315          -28.0608498856       -5.5534286027        3.0234377847  MEMB      36              0.0000000000
      4957        36  DOPC      H15X          -27.8491015118       -4.5905009527        3.5400442689  MEMB      36              0.0000000000
      4958        36  DOPC      H15Y          -29.0178271591       -5.4218664953        2.4762208513  MEMB      36              0.0000000000
      4959        36  DOPC      C316          -26.9150650273       -5.8259588057        2.0539003853  MEMB      36              0.0000000000
      4960        36  DOPC      H16X          -26.7086414324       -4.9059789249        1.4719604018  MEMB      36              0.0000000000
      4961        36  DOPC      H16Y          -25.9988789999       -6.1047003219        2.6241606715  MEMB      36              0.0000000000
      4962        36  DOPC      C317          -27.2165273341       -6.8894510106        1.0198775772  MEMB      36              0.0000000000
      4963        36  DOPC      H17X          -26.2819343097       -7.0348811789        0.4349405785  MEMB      36              0.0000000000
      4964        36  DOPC      H17Y          -27.4709637033       -7.8286162005        1.5537748369  MEMB      36              0.0000000000
      4965        36  DOPC      C318          -28.2860094118       -6.4825103204        0.0141599759  MEMB      36              0.0000000000
      4966        36  DOPC      H18X          -28.5413884038       -7.2638991042       -0.7229347700  MEMB      36              0.0000000000
      4967        36  DOPC      H18Y          -29.2242569216       -6.1656537698        0.5101908127  MEMB      36              0.0000000000
      4968        36  DOPC      H18Z          -27.8544876161       -5.6591370199       -0.5832417117  MEMB      36              0.0000000000
      4969        37  DOPC      N             -26.6763090512        7.1471618622       18.5858506371  MEMB      37              0.0000000000
      4970        37  DOPC      C12           -27.1714403814        6.2729587252       17.4342877599  MEMB      37              0.0000000000
      4971        37  DOPC      H12A          -26.3565352881        6.0710872590       16.7527970791  MEMB      37              0.0000000000
      4972        37  DOPC      H12B          -27.9358791128        6.8032613862       16.8783976548  MEMB      37              0.0000000000
      4973        37  DOPC      C13           -26.1108907212        8.4499630944       18.1302285227  MEMB      37              0.0000000000
      4974        37  DOPC      H13A          -25.8146596624        9.0072095099       19.0108540374  MEMB      37              0.0000000000
      4975        37  DOPC      H13B          -25.1903048505        8.2687695956       17.5736676900  MEMB      37              0.0000000000
      4976        37  DOPC      H13C          -26.8135913425        9.0141958359       17.5370298152  MEMB      37              0.0000000000
      4977        37  DOPC      C14           -25.5630787160        6.4496668933       19.3062269331  MEMB      37              0.0000000000
      4978        37  DOPC      H14A          -25.8591584820        5.4700781280       19.6419645574  MEMB      37              0.0000000000
      4979        37  DOPC      H14B          -24.6755194150        6.3509315398       18.6824117483  MEMB      37              0.0000000000
      4980        37  DOPC      H14C          -25.1973407629        7.0350810984       20.1422532855  MEMB      37              0.0000000000
      4981        37  DOPC      C15           -27.7945862604        7.3909743442       19.5580510336  MEMB      37              0.0000000000
      4982        37  DOPC      H15A          -28.2302249688        6.4184095104       19.8094561644  MEMB      37              0.0000000000
      4983        37  DOPC      H15B          -28.5961167080        7.9555679097       19.1012532250  MEMB      37              0.0000000000
      4984        37  DOPC      H15C          -27.4612352022        7.8750532667       20.4694338666  MEMB      37              0.0000000000
      4985        37  DOPC      C11           -27.8329854423        4.9253145127       17.8138703876  MEMB      37              0.0000000000
      4986        37  DOPC      H11A          -27.9736637381        4.3105574210       16.8955382843  MEMB      37              0.0000000000
      4987        37  DOPC      H11B          -27.1760108766        4.3575287791       18.5141682173  MEMB      37              0.0000000000
      4988        37  DOPC      P             -29.8718637203        4.1267726874       19.2464655379  MEMB      37              0.0000000000
      4989        37  DOPC      O13           -31.2694573799        4.5269746737       19.4510605400  MEMB      37              0.0000000000
      4990        37  DOPC      O14           -29.1077765709        3.8748266640       20.4867158179  MEMB      37              0.0000000000
      4991        37  DOPC      O12           -29.1049625051        5.1943509291       18.3766740156  MEMB      37              0.0000000000
      4992        37  DOPC      O11           -29.8332255349        2.8323020196       18.3995786812  MEMB      37              0.0000000000
      4993        37  DOPC      C1            -30.7787137036        1.7698376341       18.5821624316  MEMB      37              0.0000000000
      4994        37  DOPC      HA            -31.5963809332        2.0001364032       19.3098346666  MEMB      37              0.0000000000
      4995        37  DOPC      HB            -30.2257875492        0.8811882633       18.9656867519  MEMB      37              0.0000000000
      4996        37  DOPC      C2            -31.4196093286        1.3743710809       17.2271835352  MEMB      37              0.0000000000
      4997        37  DOPC      HS            -31.6601577079        0.2880976157       17.2820996613  MEMB      37              0.0000000000
      4998        37  DOPC      O21           -30.4455633209        1.6168971330       16.2112403897  MEMB      37              0.0000000000
      4999        37  DOPC      C21           -30.6276201563        1.1053623436       15.0308569023  MEMB      37              0.0000000000
      5000        37  DOPC      O22           -31.5372314977        0.3577671637       14.6904659492  MEMB      37              0.0000000000
      5001        37  DOPC      C22           -29.5001400133        1.6429041912       14.1434577114  MEMB      37              0.0000000000
      5002        37  DOPC      H2R           -29.0533502187        0.7704706275       13.6419652014  MEMB      37              0.0000000000
      5003        37  DOPC      H2S           -28.7206570622        2.0816982897       14.8045740036  MEMB      37              0.0000000000
      5004        37  DOPC      C3            -32.7377181738        2.1587301131       16.9428014410  MEMB      37              0.0000000000
      5005        37  DOPC      HX            -33.4561808936        1.8944545667       17.7385830312  MEMB      37              0.0000000000
      5006        37  DOPC      HY            -33.1742053986        1.8219463488       15.9761409358  MEMB      37              0.0000000000
      5007        37  DOPC      O31           -32.5565139039        3.5803128361       17.0288797046  MEMB      37              0.0000000000
      5008        37  DOPC      C31           -32.2934810572        4.2224958508       15.9197428927  MEMB      37              0.0000000000
      5009        37  DOPC      O32           -32.5182036553        3.8136125204       14.7905550727  MEMB      37              0.0000000000
      5010        37  DOPC      C32           -31.7782762287        5.6119271714       16.2693966936  MEMB      37              0.0000000000
      5011        37  DOPC      H2X           -32.5933356299        6.1694220487       16.7766704252  MEMB      37              0.0000000000
      5012        37  DOPC      H2Y           -30.9422314830        5.4971219120       16.9800276319  MEMB      37              0.0000000000
      5013        37  DOPC      C23           -29.9248288090        2.6828501049       13.0979910351  MEMB      37              0.0000000000
      5014        37  DOPC      H3R           -29.1236860115        3.4546832657       13.0366071145  MEMB      37              0.0000000000
      5015        37  DOPC      H3S           -30.8545998025        3.2076157333       13.3854267747  MEMB      37              0.0000000000
      5016        37  DOPC      C24           -30.1174059318        2.0373077600       11.7358214597  MEMB      37              0.0000000000
      5017        37  DOPC      H4R           -31.1041674919        1.5217695369       11.7046663787  MEMB      37              0.0000000000
      5018        37  DOPC      H4S           -29.3368171948        1.2600885464       11.5862290591  MEMB      37              0.0000000000
      5019        37  DOPC      C25           -30.0121084268        3.0368793623       10.5856609909  MEMB      37              0.0000000000
      5020        37  DOPC      H5R           -28.9446511217        3.3413057146       10.4977783640  MEMB      37              0.0000000000
      5021        37  DOPC      H5S           -30.6375488959        3.9296615731       10.8048158051  MEMB      37              0.0000000000
      5022        37  DOPC      C26           -30.4588383011        2.3681943583        9.2902820133  MEMB      37              0.0000000000
      5023        37  DOPC      H6R           -31.5622044679        2.4159994954        9.1906268517  MEMB      37              0.0000000000
      5024        37  DOPC      H6S           -30.2006605813        1.2988623618        9.4610128348  MEMB      37              0.0000000000
      5025        37  DOPC      C27           -29.7650640843        2.8553953758        8.0039418904  MEMB      37              0.0000000000
      5026        37  DOPC      H7R           -28.6697354464        2.9295778780        8.1873499598  MEMB      37              0.0000000000
      5027        37  DOPC      H7S           -30.1179963879        3.8708454852        7.7289478425  MEMB      37              0.0000000000
      5028        37  DOPC      C28           -30.0227156472        1.9222504369        6.8015829971  MEMB      37              0.0000000000
      5029        37  DOPC      H8R           -29.3847656344        2.2390798807        5.9456430451  MEMB      37              0.0000000000
      5030        37  DOPC      H8S           -31.0801590706        2.0449496198        6.4942006359  MEMB      37              0.0000000000
      5031        37  DOPC      C29           -29.7421788458        0.4933015665        7.1893106644  MEMB      37              0.0000000000
      5032        37  DOPC      H9R           -29.0143690306        0.4051342543        8.0045039378  MEMB      37              0.0000000000
      5033        37  DOPC      C210          -30.2363341397       -0.6345203501        6.6660513563  MEMB      37              0.0000000000
      5034        37  DOPC      H10R          -29.9968099542       -1.5871933239        7.1637062106  MEMB      37              0.0000000000
      5035        37  DOPC      C211          -31.2111167929       -0.7100750381        5.5269178032  MEMB      37              0.0000000000
      5036        37  DOPC      H11R          -32.1856150301       -0.2789687003        5.8479116498  MEMB      37              0.0000000000
      5037        37  DOPC      H11S          -31.4068164281       -1.7761298395        5.2751545417  MEMB      37              0.0000000000
      5038        37  DOPC      C212          -30.7428460482        0.0221689161        4.2480719082  MEMB      37              0.0000000000
      5039        37  DOPC      H12R          -30.6369451353       -0.7275302801        3.4322464042  MEMB      37              0.0000000000
      5040        37  DOPC      H12S          -29.7411663848        0.4903904625        4.3755469705  MEMB      37              0.0000000000
      5041        37  DOPC      C213          -31.7563634964        1.0952356127        3.8234494951  MEMB      37              0.0000000000
      5042        37  DOPC      H13R          -31.9771204021        1.7916190440        4.6573395374  MEMB      37              0.0000000000
      5043        37  DOPC      H13S          -32.7035749098        0.5555319809        3.5964935196  MEMB      37              0.0000000000
      5044        37  DOPC      C214          -31.3614586259        1.8840029004        2.5715246066  MEMB      37              0.0000000000
      5045        37  DOPC      H14R          -32.1977448367        1.7545873737        1.8572693055  MEMB      37              0.0000000000
      5046        37  DOPC      H14S          -30.4334962762        1.4783834075        2.1186748921  MEMB      37              0.0000000000
      5047        37  DOPC      C215          -31.1503963267        3.3817440062        2.7648973352  MEMB      37              0.0000000000
      5048        37  DOPC      H15R          -30.1225773934        3.4859143123        3.1588454083  MEMB      37              0.0000000000
      5049        37  DOPC      H15S          -31.8507749747        3.7827669763        3.5305856029  MEMB      37              0.0000000000
      5050        37  DOPC      C216          -31.3254841813        4.1910594215        1.4603049755  MEMB      37              0.0000000000
      5051        37  DOPC      H16R          -32.2054079251        3.8043486228        0.9184966023  MEMB      37              0.0000000000
      5052        37  DOPC      H16S          -30.4567375742        4.0150553924        0.7973035447  MEMB      37              0.0000000000
      5053        37  DOPC      C217          -31.6131608294        5.6919508674        1.6329690530  MEMB      37              0.0000000000
      5054        37  DOPC      H17R          -30.7597377212        6.2274502196        2.0913585665  MEMB      37              0.0000000000
      5055        37  DOPC      H17S          -32.4940713994        5.8177350769        2.2959501502  MEMB      37              0.0000000000
      5056        37  DOPC      C218          -31.9216794250        6.4134750802        0.3340848907  MEMB      37              0.0000000000
      5057        37  DOPC      H18R          -31.8890373951        7.5107940853        0.5070480000  MEMB      37              0.0000000000
      5058        37  DOPC      H18S          -32.9382313424        6.1356018636       -0.0132962883  MEMB      37              0.0000000000
      5059        37  DOPC      H18T          -31.1833660105        6.1612470281       -0.4546461280  MEMB      37              0.0000000000
      5060        37  DOPC      C33           -31.2784297809        6.2874213865       14.9886213316  MEMB      37              0.0000000000
      5061        37  DOPC      H3X           -32.1130669074        6.3076478552       14.2500230445  MEMB      37              0.0000000000
      5062        37  DOPC      H3Y           -30.4639378073        5.6583159555       14.5609612073  MEMB      37              0.0000000000
      5063        37  DOPC      C34           -30.7548204153        7.7080575505       15.1823078814  MEMB      37              0.0000000000
      5064        37  DOPC      H4X           -29.6628091623        7.6747132148       15.3861476645  MEMB      37              0.0000000000
      5065        37  DOPC      H4Y           -31.2408362888        8.1721910734       16.0686484400  MEMB      37              0.0000000000
      5066        37  DOPC      C35           -31.0414883934        8.5944910327       13.9621952475  MEMB      37              0.0000000000
      5067        37  DOPC      H5X           -30.5870379902        9.5861623378       14.1528365556  MEMB      37              0.0000000000
      5068        37  DOPC      H5Y           -32.1403435569        8.7506790584       13.8625853023  MEMB      37              0.0000000000
      5069        37  DOPC      C36           -30.5105262606        8.0700696211       12.6181152370  MEMB      37              0.0000000000
      5070        37  DOPC      H6X           -31.1851475202        7.2808720099       12.2180278547  MEMB      37              0.0000000000
      5071        37  DOPC      H6Y           -30.5416214593        8.9198445843       11.8970741525  MEMB      37              0.0000000000
      5072        37  DOPC      C37           -29.0756126365        7.5272750448       12.6900307376  MEMB      37              0.0000000000
      5073        37  DOPC      H7X           -28.4793137563        8.2198697976       13.3086730818  MEMB      37              0.0000000000
      5074        37  DOPC      H7Y           -29.0601302747        6.5425481779       13.2061194094  MEMB      37              0.0000000000
      5075        37  DOPC      C38           -28.3877953781        7.4253442679       11.3217070874  MEMB      37              0.0000000000
      5076        37  DOPC      H8X           -27.3044173249        7.2390487756       11.4814652030  MEMB      37              0.0000000000
      5077        37  DOPC      H8Y           -28.4648926555        8.3955439289       10.7850101973  MEMB      37              0.0000000000
      5078        37  DOPC      C39           -28.9787328959        6.2839041707       10.5481528748  MEMB      37              0.0000000000
      5079        37  DOPC      H9X           -28.6512855609        5.2988184317       10.9066153859  MEMB      37              0.0000000000
      5080        37  DOPC      C310          -29.8917748065        6.3481245059        9.5673827345  MEMB      37              0.0000000000
      5081        37  DOPC      H10X          -30.2451900148        5.4059826775        9.1256846290  MEMB      37              0.0000000000
      5082        37  DOPC      C311          -30.5490959081        7.5797226496        9.0017141084  MEMB      37              0.0000000000
      5083        37  DOPC      H11X          -30.2943180949        8.4904551522        9.5859270594  MEMB      37              0.0000000000
      5084        37  DOPC      H11Y          -31.6516054460        7.4516091947        9.0858626010  MEMB      37              0.0000000000
      5085        37  DOPC      C312          -30.2161995150        7.8518147155        7.5188269939  MEMB      37              0.0000000000
      5086        37  DOPC      H12X          -29.2828795175        8.4569415385        7.4557444138  MEMB      37              0.0000000000
      5087        37  DOPC      H12Y          -31.0419177851        8.4638131474        7.0897996060  MEMB      37              0.0000000000
      5088        37  DOPC      C313          -30.0158234916        6.5789401781        6.6837809906  MEMB      37              0.0000000000
      5089        37  DOPC      H13X          -29.0349968552        6.1273793779        6.9594828936  MEMB      37              0.0000000000
      5090        37  DOPC      H13Y          -30.8155211131        5.8390350005        6.9181093294  MEMB      37              0.0000000000
      5091        37  DOPC      C314          -30.0306503039        6.8104922178        5.1745639154  MEMB      37              0.0000000000
      5092        37  DOPC      H14X          -31.0942959417        6.9648322833        4.8673407300  MEMB      37              0.0000000000
      5093        37  DOPC      H14Y          -29.4720764272        7.7276426985        4.8925440512  MEMB      37              0.0000000000
      5094        37  DOPC      C315          -29.4776460141        5.5903967886        4.4197277411  MEMB      37              0.0000000000
      5095        37  DOPC      H15X          -30.2876502796        5.3619234166        3.7307783883  MEMB      37              0.0000000000
      5096        37  DOPC      H15Y          -29.3661556598        4.7097778470        5.0863746909  MEMB      37              0.0000000000
      5097        37  DOPC      C316          -28.2177432338        5.8332195078        3.5762517755  MEMB      37              0.0000000000
      5098        37  DOPC      H16X          -28.3768868449        6.7384346655        2.9507113636  MEMB      37              0.0000000000
      5099        37  DOPC      H16Y          -27.3938570535        6.0129614164        4.2745972981  MEMB      37              0.0000000000
      5100        37  DOPC      C317          -27.6794214413        4.7143670305        2.6662709334  MEMB      37              0.0000000000
      5101        37  DOPC      H17X          -26.5797341617        4.6377933737        2.8642530882  MEMB      37              0.0000000000
      5102        37  DOPC      H17Y          -28.1090208237        3.7319553360        2.9463528661  MEMB      37              0.0000000000
      5103        37  DOPC      C318          -27.8650608908        5.0279114315        1.1753099766  MEMB      37              0.0000000000
      5104        37  DOPC      H18X          -27.2515029988        5.8930618025        0.8812890557  MEMB      37              0.0000000000
      5105        37  DOPC      H18Y          -27.5721206935        4.1770289829        0.5287488679  MEMB      37              0.0000000000
      5106        37  DOPC      H18Z          -28.9010410782        5.3373782572        0.9419048420  MEMB      37              0.0000000000
      5107        38  DOPC      N              -4.9899164605      -29.7125452929       21.3054252989  MEMB      38              0.0000000000
      5108        38  DOPC      C12            -5.5215932136      -29.1678778777       19.9985250112  MEMB      38              0.0000000000
      5109        38  DOPC      H12A           -5.3478890384      -28.0988831788       19.9580728566  MEMB      38              0.0000000000
      5110        38  DOPC      H12B           -6.5958650525      -29.3547997558       19.9606479927  MEMB      38              0.0000000000
      5111        38  DOPC      C13            -5.5831209363      -31.0768283877       21.5673011525  MEMB      38              0.0000000000
      5112        38  DOPC      H13A           -5.5833449781      -31.6698143965       20.6433911270  MEMB      38              0.0000000000
      5113        38  DOPC      H13B           -5.0210268163      -31.6178842466       22.3118119564  MEMB      38              0.0000000000
      5114        38  DOPC      H13C           -6.6199705322      -30.9935399575       21.8768121439  MEMB      38              0.0000000000
      5115        38  DOPC      C14            -5.3707094806      -28.8149349770       22.4111366655  MEMB      38              0.0000000000
      5116        38  DOPC      H14A           -4.9812476654      -27.8180528152       22.2324726814  MEMB      38              0.0000000000
      5117        38  DOPC      H14B           -6.4485396724      -28.7173076226       22.5221753766  MEMB      38              0.0000000000
      5118        38  DOPC      H14C           -4.9784259227      -29.1858146075       23.3488726133  MEMB      38              0.0000000000
      5119        38  DOPC      C15            -3.5006514228      -29.8446029499       21.2395119880  MEMB      38              0.0000000000
      5120        38  DOPC      H15A           -3.0293556793      -28.8813628417       21.1473186204  MEMB      38              0.0000000000
      5121        38  DOPC      H15B           -3.2333201550      -30.4788117735       20.3889025024  MEMB      38              0.0000000000
      5122        38  DOPC      H15C           -3.1130779545      -30.3193893406       22.1310668346  MEMB      38              0.0000000000
      5123        38  DOPC      C11            -4.9264294176      -29.8085082398       18.7368810427  MEMB      38              0.0000000000
      5124        38  DOPC      H11A           -5.4320199700      -29.3743931384       17.8511974188  MEMB      38              0.0000000000
      5125        38  DOPC      H11B           -3.8419172546      -29.5537930760       18.6452616036  MEMB      38              0.0000000000
      5126        38  DOPC      P              -4.4189290348      -32.1365825265       17.7311571529  MEMB      38              0.0000000000
      5127        38  DOPC      O13            -4.9077707954      -33.5208433343       17.8856296469  MEMB      38              0.0000000000
      5128        38  DOPC      O14            -2.9686569631      -31.8547865080       17.8913442085  MEMB      38              0.0000000000
      5129        38  DOPC      O12            -5.1527779563      -31.2157902267       18.7901881519  MEMB      38              0.0000000000
      5130        38  DOPC      O11            -4.9986784279      -31.4543750604       16.4270787895  MEMB      38              0.0000000000
      5131        38  DOPC      C1             -6.4283956019      -31.5075740758       16.3024566947  MEMB      38              0.0000000000
      5132        38  DOPC      HA             -6.9733839944      -31.3368859422       17.2625298638  MEMB      38              0.0000000000
      5133        38  DOPC      HB             -6.7175554313      -32.5345037555       15.9703463510  MEMB      38              0.0000000000
      5134        38  DOPC      C2             -6.9710641005      -30.4635380631       15.2786165554  MEMB      38              0.0000000000
      5135        38  DOPC      HS             -7.9538097018      -30.8653160061       14.9592184330  MEMB      38              0.0000000000
      5136        38  DOPC      O21            -6.1472177968      -30.2324858335       14.1284350780  MEMB      38              0.0000000000
      5137        38  DOPC      C21            -5.7549980162      -31.2931819736       13.4763988782  MEMB      38              0.0000000000
      5138        38  DOPC      O22            -5.9933882663      -32.4473837204       13.7398416209  MEMB      38              0.0000000000
      5139        38  DOPC      C22            -5.1213123806      -30.8994677364       12.1528119979  MEMB      38              0.0000000000
      5140        38  DOPC      H2R            -5.8361425131      -31.1840008695       11.3485593286  MEMB      38              0.0000000000
      5141        38  DOPC      H2S            -4.2319078463      -31.5555112091       12.0590581325  MEMB      38              0.0000000000
      5142        38  DOPC      C3             -7.2156391053      -29.0622325904       15.8863882018  MEMB      38              0.0000000000
      5143        38  DOPC      HX             -6.2073486699      -28.6481856263       16.1125865646  MEMB      38              0.0000000000
      5144        38  DOPC      HY             -7.7928695400      -29.1627404868       16.8314116000  MEMB      38              0.0000000000
      5145        38  DOPC      O31            -7.9563780765      -28.2419996507       14.9604176112  MEMB      38              0.0000000000
      5146        38  DOPC      C31            -7.5653351851      -26.9909110243       14.7833544364  MEMB      38              0.0000000000
      5147        38  DOPC      O32            -6.6140972270      -26.4534236507       15.3311304731  MEMB      38              0.0000000000
      5148        38  DOPC      C32            -8.5896005752      -26.2467025649       13.9088168252  MEMB      38              0.0000000000
      5149        38  DOPC      H2X            -9.3701672777      -26.9327368142       13.5426308261  MEMB      38              0.0000000000
      5150        38  DOPC      H2Y            -9.1012328635      -25.5325789926       14.5892807264  MEMB      38              0.0000000000
      5151        38  DOPC      C23            -4.7286684872      -29.4144544189       12.0018503228  MEMB      38              0.0000000000
      5152        38  DOPC      H3R            -4.5783900469      -28.9225214346       12.9894458135  MEMB      38              0.0000000000
      5153        38  DOPC      H3S            -5.5539141071      -28.8715509892       11.4936915639  MEMB      38              0.0000000000
      5154        38  DOPC      C24            -3.4123811851      -29.2599237320       11.2396103083  MEMB      38              0.0000000000
      5155        38  DOPC      H4R            -2.5830275344      -29.5702931922       11.9160272627  MEMB      38              0.0000000000
      5156        38  DOPC      H4S            -3.2609036860      -28.1863133304       10.9851645877  MEMB      38              0.0000000000
      5157        38  DOPC      C25            -3.3327486084      -30.1029637415        9.9657221360  MEMB      38              0.0000000000
      5158        38  DOPC      H5R            -4.0996421084      -29.7296562014        9.2538500892  MEMB      38              0.0000000000
      5159        38  DOPC      H5S            -3.5462680248      -31.1794907292       10.1392158551  MEMB      38              0.0000000000
      5160        38  DOPC      C26            -1.9469076131      -30.0108563914        9.3351407153  MEMB      38              0.0000000000
      5161        38  DOPC      H6R            -1.2515177344      -30.7442075738        9.8014942475  MEMB      38              0.0000000000
      5162        38  DOPC      H6S            -1.5270806070      -29.0066703820        9.5329360742  MEMB      38              0.0000000000
      5163        38  DOPC      C27            -2.0092019814      -30.2196373429        7.8270285006  MEMB      38              0.0000000000
      5164        38  DOPC      H7R            -1.0059965222      -29.9790546392        7.4070667231  MEMB      38              0.0000000000
      5165        38  DOPC      H7S            -2.7328467413      -29.5019064996        7.3798200637  MEMB      38              0.0000000000
      5166        38  DOPC      C28            -2.4205407539      -31.6514029133        7.4754684810  MEMB      38              0.0000000000
      5167        38  DOPC      H8R            -3.4554583356      -31.8552817709        7.8229123477  MEMB      38              0.0000000000
      5168        38  DOPC      H8S            -1.7671207123      -32.3470364060        8.0422829678  MEMB      38              0.0000000000
      5169        38  DOPC      C29            -2.2553603840      -31.8104585983        5.9899455048  MEMB      38              0.0000000000
      5170        38  DOPC      H9R            -1.2142603663      -31.8009237668        5.6302419377  MEMB      38              0.0000000000
      5171        38  DOPC      C210           -3.2382692479      -31.9604593802        5.0989973813  MEMB      38              0.0000000000
      5172        38  DOPC      H10R           -2.9658261722      -31.9852218108        4.0358803388  MEMB      38              0.0000000000
      5173        38  DOPC      C211           -4.7148608296      -32.0048071114        5.3842018333  MEMB      38              0.0000000000
      5174        38  DOPC      H11R           -4.9726409597      -31.5091582856        6.3462278371  MEMB      38              0.0000000000
      5175        38  DOPC      H11S           -5.0353340157      -33.0659294507        5.4538027736  MEMB      38              0.0000000000
      5176        38  DOPC      C212           -5.4976301136      -31.3281547169        4.2511360053  MEMB      38              0.0000000000
      5177        38  DOPC      H12R           -5.4382106937      -31.9636167115        3.3407762640  MEMB      38              0.0000000000
      5178        38  DOPC      H12S           -5.0377658496      -30.3406690156        4.0108401709  MEMB      38              0.0000000000
      5179        38  DOPC      C213           -6.9726751709      -31.0766397557        4.5881419789  MEMB      38              0.0000000000
      5180        38  DOPC      H13R           -7.0233121095      -30.4177889425        5.4776194761  MEMB      38              0.0000000000
      5181        38  DOPC      H13S           -7.4849916657      -32.0226096004        4.8541127481  MEMB      38              0.0000000000
      5182        38  DOPC      C214           -7.7163938514      -30.4162755312        3.4236550318  MEMB      38              0.0000000000
      5183        38  DOPC      H14R           -7.0959183513      -29.5916936614        3.0204660704  MEMB      38              0.0000000000
      5184        38  DOPC      H14S           -8.6690129888      -29.9800983370        3.7947623208  MEMB      38              0.0000000000
      5185        38  DOPC      C215           -8.0324855012      -31.4084059047        2.3030887256  MEMB      38              0.0000000000
      5186        38  DOPC      H15R           -8.6028295352      -32.2578357907        2.7371570484  MEMB      38              0.0000000000
      5187        38  DOPC      H15S           -7.0829627354      -31.8208251233        1.8905195903  MEMB      38              0.0000000000
      5188        38  DOPC      C216           -8.8420665260      -30.7975049350        1.1549054567  MEMB      38              0.0000000000
      5189        38  DOPC      H16R           -8.1272344594      -30.3440152472        0.4520523093  MEMB      38              0.0000000000
      5190        38  DOPC      H16S           -9.4926171604      -29.9626199957        1.4736874864  MEMB      38              0.0000000000
      5191        38  DOPC      C217           -9.6509398229      -31.8426414326        0.3967796344  MEMB      38              0.0000000000
      5192        38  DOPC      H17R          -10.6094901278      -32.0748208666        0.8802665973  MEMB      38              0.0000000000
      5193        38  DOPC      H17S           -9.0907518284      -32.7888040027        0.4775087023  MEMB      38              0.0000000000
      5194        38  DOPC      C218           -9.9551523449      -31.4282900479       -1.0350891030  MEMB      38              0.0000000000
      5195        38  DOPC      H18R          -10.8216071634      -30.7332183900       -0.9978698735  MEMB      38              0.0000000000
      5196        38  DOPC      H18S          -10.2280368714      -32.2947787638       -1.6762277667  MEMB      38              0.0000000000
      5197        38  DOPC      H18T           -9.1038334312      -30.8953295452       -1.5133334182  MEMB      38              0.0000000000
      5198        38  DOPC      C33            -7.9892232470      -25.4564603581       12.7201086395  MEMB      38              0.0000000000
      5199        38  DOPC      H3X            -7.0278604799      -24.9724918282       12.9993634966  MEMB      38              0.0000000000
      5200        38  DOPC      H3Y            -8.7070791882      -24.6408277977       12.4599651372  MEMB      38              0.0000000000
      5201        38  DOPC      C34            -7.8047836444      -26.2925770428       11.4467002997  MEMB      38              0.0000000000
      5202        38  DOPC      H4X            -8.7763788817      -26.7469308180       11.1431562870  MEMB      38              0.0000000000
      5203        38  DOPC      H4Y            -7.0851726567      -27.1186650753       11.6319045340  MEMB      38              0.0000000000
      5204        38  DOPC      C35            -7.2995002723      -25.4143294232       10.2969521921  MEMB      38              0.0000000000
      5205        38  DOPC      H5X            -6.3450629620      -24.9275481481       10.5923598430  MEMB      38              0.0000000000
      5206        38  DOPC      H5Y            -8.0422779693      -24.6033570721       10.1098743000  MEMB      38              0.0000000000
      5207        38  DOPC      C36            -7.0861023334      -26.1721175885        8.9853669731  MEMB      38              0.0000000000
      5208        38  DOPC      H6X            -8.0241935716      -26.7007207596        8.7083973373  MEMB      38              0.0000000000
      5209        38  DOPC      H6Y            -6.8974364036      -25.4143013947        8.1946832017  MEMB      38              0.0000000000
      5210        38  DOPC      C37            -5.9044885426      -27.1592293012        9.0024936223  MEMB      38              0.0000000000
      5211        38  DOPC      H7X            -5.0296416141      -26.6814545594        9.4998074441  MEMB      38              0.0000000000
      5212        38  DOPC      H7Y            -6.1915624743      -28.0444770801        9.6088512252  MEMB      38              0.0000000000
      5213        38  DOPC      C38            -5.4673246234      -27.6189578531        7.5996981115  MEMB      38              0.0000000000
      5214        38  DOPC      H8X            -4.7215758872      -28.4354845114        7.6878497220  MEMB      38              0.0000000000
      5215        38  DOPC      H8Y            -4.9304485988      -26.7852216084        7.0984681581  MEMB      38              0.0000000000
      5216        38  DOPC      C39            -6.6483832210      -28.0880936101        6.7935697537  MEMB      38              0.0000000000
      5217        38  DOPC      H9X            -7.0331884467      -29.0802620366        7.0727085666  MEMB      38              0.0000000000
      5218        38  DOPC      C310           -7.2593313228      -27.3855645279        5.8229178644  MEMB      38              0.0000000000
      5219        38  DOPC      H10X           -8.1108045899      -27.8278521615        5.2824176949  MEMB      38              0.0000000000
      5220        38  DOPC      C311           -6.8614468641      -26.0027397001        5.3766369458  MEMB      38              0.0000000000
      5221        38  DOPC      H11X           -6.2886489283      -25.4683726270        6.1550937390  MEMB      38              0.0000000000
      5222        38  DOPC      H11Y           -7.7578874831      -25.3715730214        5.1803892689  MEMB      38              0.0000000000
      5223        38  DOPC      C312           -6.0019729175      -26.0689991628        4.1098403850  MEMB      38              0.0000000000
      5224        38  DOPC      H12X           -5.1438155283      -26.7677499958        4.2364797598  MEMB      38              0.0000000000
      5225        38  DOPC      H12Y           -5.5729028152      -25.0666629231        3.9199385766  MEMB      38              0.0000000000
      5226        38  DOPC      C313           -6.8666375993      -26.4930359721        2.9268676750  MEMB      38              0.0000000000
      5227        38  DOPC      H13X           -6.8436931953      -27.5973063626        2.8843434346  MEMB      38              0.0000000000
      5228        38  DOPC      H13Y           -7.9211873992      -26.1891428742        3.1259280773  MEMB      38              0.0000000000
      5229        38  DOPC      C314           -6.4762111097      -25.8866685362        1.5811212083  MEMB      38              0.0000000000
      5230        38  DOPC      H14X           -6.5472507109      -24.7816433896        1.6523700818  MEMB      38              0.0000000000
      5231        38  DOPC      H14Y           -5.4283762380      -26.1433121776        1.3179764554  MEMB      38              0.0000000000
      5232        38  DOPC      C315           -7.4386052283      -26.3539466937        0.4885055256  MEMB      38              0.0000000000
      5233        38  DOPC      H15X           -7.2346001829      -25.7934261119       -0.4477675505  MEMB      38              0.0000000000
      5234        38  DOPC      H15Y           -8.4756542920      -26.0976354590        0.8101193716  MEMB      38              0.0000000000
      5235        38  DOPC      C316           -7.3678154193      -27.8677964240        0.2356247440  MEMB      38              0.0000000000
      5236        38  DOPC      H16X           -7.5853831403      -28.4104222368        1.1762014467  MEMB      38              0.0000000000
      5237        38  DOPC      H16Y           -8.1652341739      -28.1628719984       -0.4764133682  MEMB      38              0.0000000000
      5238        38  DOPC      C317           -6.0237164921      -28.3571557094       -0.3186092626  MEMB      38              0.0000000000
      5239        38  DOPC      H17X           -5.7252405096      -27.6733274869       -1.1435723528  MEMB      38              0.0000000000
      5240        38  DOPC      H17Y           -5.2435007853      -28.2715674246        0.4690804494  MEMB      38              0.0000000000
      5241        38  DOPC      C318           -6.0681435616      -29.7959694595       -0.8520306929  MEMB      38              0.0000000000
      5242        38  DOPC      H18X           -6.9630760473      -29.9435137817       -1.4926730588  MEMB      38              0.0000000000
      5243        38  DOPC      H18Y           -5.1844116365      -30.0341842405       -1.4750730217  MEMB      38              0.0000000000
      5244        38  DOPC      H18Z           -6.0983735758      -30.5240381810       -0.0149874510  MEMB      38              0.0000000000
      5245        39  DOPC      N             -14.4181248427      -26.4329655720       21.0984285710  MEMB      39              0.0000000000
      5246        39  DOPC      C12           -13.2303499684      -27.3761633997       20.9708535548  MEMB      39              0.0000000000
      5247        39  DOPC      H12A          -13.5891402445      -28.3873634491       20.8592157640  MEMB      39              0.0000000000
      5248        39  DOPC      H12B          -12.6438081155      -27.3289933483       21.8817123136  MEMB      39              0.0000000000
      5249        39  DOPC      C13           -15.2587113264      -26.7962860856       22.2771423696  MEMB      39              0.0000000000
      5250        39  DOPC      H13A          -16.0827135629      -26.0828821627       22.3648579021  MEMB      39              0.0000000000
      5251        39  DOPC      H13B          -15.6991666041      -27.7841668823       22.2210166252  MEMB      39              0.0000000000
      5252        39  DOPC      H13C          -14.7183090288      -26.7139431540       23.2137323062  MEMB      39              0.0000000000
      5253        39  DOPC      C14           -15.2981164270      -26.4517360712       19.8835496411  MEMB      39              0.0000000000
      5254        39  DOPC      H14A          -14.6787656333      -26.3934573446       18.9811433191  MEMB      39              0.0000000000
      5255        39  DOPC      H14B          -15.8610685675      -27.3675065993       19.8113480140  MEMB      39              0.0000000000
      5256        39  DOPC      H14C          -16.0032133884      -25.6285197609       19.8857797289  MEMB      39              0.0000000000
      5257        39  DOPC      C15           -13.9062413767      -25.0255372740       21.2436755091  MEMB      39              0.0000000000
      5258        39  DOPC      H15A          -13.7010532313      -24.6321111589       20.2461114934  MEMB      39              0.0000000000
      5259        39  DOPC      H15B          -12.9728508592      -24.9853828485       21.7885881242  MEMB      39              0.0000000000
      5260        39  DOPC      H15C          -14.6337680633      -24.3841221213       21.7448192857  MEMB      39              0.0000000000
      5261        39  DOPC      C11           -12.2598688483      -27.1374220074       19.7998804426  MEMB      39              0.0000000000
      5262        39  DOPC      H11A          -11.8468983876      -26.1008621047       19.8690970034  MEMB      39              0.0000000000
      5263        39  DOPC      H11B          -11.4022133490      -27.8477567795       19.8725290927  MEMB      39              0.0000000000
      5264        39  DOPC      P             -12.2708191798      -26.7826293567       17.2657202671  MEMB      39              0.0000000000
      5265        39  DOPC      O13           -10.9890007492      -27.4937731448       17.0796240822  MEMB      39              0.0000000000
      5266        39  DOPC      O14           -12.2337944380      -25.3037010751       17.3821029072  MEMB      39              0.0000000000
      5267        39  DOPC      O12           -12.9540204052      -27.3617930394       18.5820315068  MEMB      39              0.0000000000
      5268        39  DOPC      O11           -13.3206335400      -27.2606577269       16.1616047152  MEMB      39              0.0000000000
      5269        39  DOPC      C1            -14.6812020851      -27.5105083052       16.5394222172  MEMB      39              0.0000000000
      5270        39  DOPC      HA            -15.1925337311      -26.5452619499       16.7176317950  MEMB      39              0.0000000000
      5271        39  DOPC      HB            -14.7380329834      -28.1013071984       17.4819221191  MEMB      39              0.0000000000
      5272        39  DOPC      C2            -15.5078120004      -28.3968277165       15.5488263136  MEMB      39              0.0000000000
      5273        39  DOPC      HS            -15.7304013432      -29.3282683081       16.1172305618  MEMB      39              0.0000000000
      5274        39  DOPC      O21           -14.7647198980      -28.7098409776       14.3569013890  MEMB      39              0.0000000000
      5275        39  DOPC      C21           -15.2773796184      -29.7378079151       13.7041029541  MEMB      39              0.0000000000
      5276        39  DOPC      O22           -16.1330068521      -30.4895714164       14.1419859093  MEMB      39              0.0000000000
      5277        39  DOPC      C22           -14.6760306578      -29.8176597390       12.3231975004  MEMB      39              0.0000000000
      5278        39  DOPC      H2R           -14.1372801064      -30.7843777965       12.2293077716  MEMB      39              0.0000000000
      5279        39  DOPC      H2S           -13.9588347630      -28.9897600711       12.1518436762  MEMB      39              0.0000000000
      5280        39  DOPC      C3            -16.8669305716      -27.7438794392       15.1372315367  MEMB      39              0.0000000000
      5281        39  DOPC      HX            -17.4231996332      -27.4104106405       16.0429101403  MEMB      39              0.0000000000
      5282        39  DOPC      HY            -17.5010306498      -28.5128435886       14.6469586430  MEMB      39              0.0000000000
      5283        39  DOPC      O31           -16.6406846163      -26.6937634883       14.1852669265  MEMB      39              0.0000000000
      5284        39  DOPC      C31           -16.5290438721      -25.4812765980       14.6900766956  MEMB      39              0.0000000000
      5285        39  DOPC      O32           -16.8913254163      -25.1351732623       15.8036142111  MEMB      39              0.0000000000
      5286        39  DOPC      C32           -15.8184958963      -24.5800856670       13.6927965416  MEMB      39              0.0000000000
      5287        39  DOPC      H2X           -15.3109299567      -23.7719942284       14.2592105715  MEMB      39              0.0000000000
      5288        39  DOPC      H2Y           -15.0290373861      -25.1716909120       13.1861040241  MEMB      39              0.0000000000
      5289        39  DOPC      C23           -15.8045680843      -29.7586310895       11.3031422982  MEMB      39              0.0000000000
      5290        39  DOPC      H3R           -16.4914344172      -28.8996083014       11.4887419212  MEMB      39              0.0000000000
      5291        39  DOPC      H3S           -16.3985409188      -30.7017003619       11.3631554989  MEMB      39              0.0000000000
      5292        39  DOPC      C24           -15.2294748808      -29.6132890540        9.9146011124  MEMB      39              0.0000000000
      5293        39  DOPC      H4R           -14.2931468855      -30.2041023585        9.8074110936  MEMB      39              0.0000000000
      5294        39  DOPC      H4S           -14.9660796821      -28.5474515125        9.7403447737  MEMB      39              0.0000000000
      5295        39  DOPC      C25           -16.2185453649      -30.1384399077        8.8956785516  MEMB      39              0.0000000000
      5296        39  DOPC      H5R           -17.2166477697      -29.6651520055        9.0374552322  MEMB      39              0.0000000000
      5297        39  DOPC      H5S           -16.3330111506      -31.2338644979        9.0612123319  MEMB      39              0.0000000000
      5298        39  DOPC      C26           -15.6892160858      -29.8668458162        7.5051933297  MEMB      39              0.0000000000
      5299        39  DOPC      H6R           -16.3403834494      -30.3473538902        6.7489846288  MEMB      39              0.0000000000
      5300        39  DOPC      H6S           -14.6710297193      -30.3161567614        7.4255545389  MEMB      39              0.0000000000
      5301        39  DOPC      C27           -15.6242388917      -28.3631792712        7.2039805829  MEMB      39              0.0000000000
      5302        39  DOPC      H7R           -14.7263075861      -27.9259824037        7.6970799032  MEMB      39              0.0000000000
      5303        39  DOPC      H7S           -16.5283573497      -27.8865118822        7.6422783896  MEMB      39              0.0000000000
      5304        39  DOPC      C28           -15.5882993772      -28.0446282888        5.7097076557  MEMB      39              0.0000000000
      5305        39  DOPC      H8R           -15.2888035208      -26.9953779160        5.5240307478  MEMB      39              0.0000000000
      5306        39  DOPC      H8S           -16.6188302449      -28.1720417105        5.3132092123  MEMB      39              0.0000000000
      5307        39  DOPC      C29           -14.5914131659      -28.9854777929        5.1120031377  MEMB      39              0.0000000000
      5308        39  DOPC      H9R           -13.5497089822      -28.7962678875        5.3907680082  MEMB      39              0.0000000000
      5309        39  DOPC      C210          -14.8810208835      -29.9932955562        4.2871159155  MEMB      39              0.0000000000
      5310        39  DOPC      H10R          -14.0921869541      -30.6737270018        3.9672546905  MEMB      39              0.0000000000
      5311        39  DOPC      C211          -16.2294155325      -30.3773342881        3.7870841309  MEMB      39              0.0000000000
      5312        39  DOPC      H11R          -17.0722108818      -29.9485011021        4.3717344404  MEMB      39              0.0000000000
      5313        39  DOPC      H11S          -16.3131484234      -31.4815048233        3.8562274311  MEMB      39              0.0000000000
      5314        39  DOPC      C212          -16.3087551758      -29.9437271047        2.3146222176  MEMB      39              0.0000000000
      5315        39  DOPC      H12R          -17.3575217948      -30.0503044550        1.9880413828  MEMB      39              0.0000000000
      5316        39  DOPC      H12S          -15.7231427184      -30.6661599185        1.7077723828  MEMB      39              0.0000000000
      5317        39  DOPC      C213          -15.8331484970      -28.5126930541        1.9724719635  MEMB      39              0.0000000000
      5318        39  DOPC      H13R          -15.5993707306      -28.4917183966        0.8838741788  MEMB      39              0.0000000000
      5319        39  DOPC      H13S          -14.8961833334      -28.2089503817        2.4823842004  MEMB      39              0.0000000000
      5320        39  DOPC      C214          -16.8997064980      -27.4586654877        2.2417111310  MEMB      39              0.0000000000
      5321        39  DOPC      H14R          -16.4531412980      -26.4553363235        2.0531613873  MEMB      39              0.0000000000
      5322        39  DOPC      H14S          -17.2125376028      -27.4913277751        3.3059041384  MEMB      39              0.0000000000
      5323        39  DOPC      C215          -18.0969013091      -27.6898349635        1.3223537548  MEMB      39              0.0000000000
      5324        39  DOPC      H15R          -18.8311186691      -28.3669108327        1.8101765948  MEMB      39              0.0000000000
      5325        39  DOPC      H15S          -17.7321444083      -28.2062659299        0.4037898045  MEMB      39              0.0000000000
      5326        39  DOPC      C216          -18.7473374963      -26.3913883007        0.8810482791  MEMB      39              0.0000000000
      5327        39  DOPC      H16R          -17.9571998120      -25.6905062932        0.5302589635  MEMB      39              0.0000000000
      5328        39  DOPC      H16S          -19.2617842492      -25.9248341529        1.7469052486  MEMB      39              0.0000000000
      5329        39  DOPC      C217          -19.7354255106      -26.5980116936       -0.2570800301  MEMB      39              0.0000000000
      5330        39  DOPC      H17R          -20.7375070323      -26.5868256667        0.2062512914  MEMB      39              0.0000000000
      5331        39  DOPC      H17S          -19.5890307263      -27.5962295151       -0.7320539665  MEMB      39              0.0000000000
      5332        39  DOPC      C218          -19.6510684667      -25.5146245052       -1.3271873629  MEMB      39              0.0000000000
      5333        39  DOPC      H18R          -19.4845432529      -24.5153414735       -0.8760476523  MEMB      39              0.0000000000
      5334        39  DOPC      H18S          -20.5964701418      -25.4612158028       -1.8846261312  MEMB      39              0.0000000000
      5335        39  DOPC      H18T          -18.8361666381      -25.7378844253       -2.0470276244  MEMB      39              0.0000000000
      5336        39  DOPC      C33           -16.8406211628      -23.9663054056       12.7105832584  MEMB      39              0.0000000000
      5337        39  DOPC      H3X           -16.3324482465      -23.1531047352       12.1419068073  MEMB      39              0.0000000000
      5338        39  DOPC      H3Y           -17.6847953741      -23.5101110225       13.2695703954  MEMB      39              0.0000000000
      5339        39  DOPC      C34           -17.3785525235      -24.9662592610       11.6773223323  MEMB      39              0.0000000000
      5340        39  DOPC      H4X           -18.0038527390      -24.4042472362       10.9501977686  MEMB      39              0.0000000000
      5341        39  DOPC      H4Y           -18.0316872839      -25.7327748080       12.1544083343  MEMB      39              0.0000000000
      5342        39  DOPC      C35           -16.2264418044      -25.6526979703       10.9458428309  MEMB      39              0.0000000000
      5343        39  DOPC      H5X           -16.0059161905      -26.6245705499       11.4484126261  MEMB      39              0.0000000000
      5344        39  DOPC      H5Y           -15.3108505735      -25.0236386005       11.0389285366  MEMB      39              0.0000000000
      5345        39  DOPC      C36           -16.4431576171      -25.8838924511        9.4528652237  MEMB      39              0.0000000000
      5346        39  DOPC      H6X           -15.4974786925      -26.3748097640        9.1200823168  MEMB      39              0.0000000000
      5347        39  DOPC      H6Y           -17.2789349630      -26.5935223919        9.2773666054  MEMB      39              0.0000000000
      5348        39  DOPC      C37           -16.6247819506      -24.6375312628        8.5612185645  MEMB      39              0.0000000000
      5349        39  DOPC      H7X           -17.6524146802      -24.2255884350        8.6694740703  MEMB      39              0.0000000000
      5350        39  DOPC      H7Y           -15.8991507382      -23.8589524953        8.8810909131  MEMB      39              0.0000000000
      5351        39  DOPC      C38           -16.3416022979      -25.0707761216        7.1040490964  MEMB      39              0.0000000000
      5352        39  DOPC      H8X           -17.2051057693      -25.7032003457        6.7929272321  MEMB      39              0.0000000000
      5353        39  DOPC      H8Y           -15.4619503912      -25.7390755670        7.1782688482  MEMB      39              0.0000000000
      5354        39  DOPC      C39           -16.0466347079      -24.0871455846        6.0068456558  MEMB      39              0.0000000000
      5355        39  DOPC      H9X           -16.8822798904      -23.4131627343        5.7649215118  MEMB      39              0.0000000000
      5356        39  DOPC      C310          -14.8922144151      -23.9236961416        5.3216957617  MEMB      39              0.0000000000
      5357        39  DOPC      H10X          -14.8886994310      -23.1437811999        4.5565472258  MEMB      39              0.0000000000
      5358        39  DOPC      C311          -13.5561268319      -24.6199084756        5.4097070061  MEMB      39              0.0000000000
      5359        39  DOPC      H11X          -13.6085492074      -25.5730042295        5.9808607103  MEMB      39              0.0000000000
      5360        39  DOPC      H11Y          -12.8615768016      -23.9535439230        5.9720762144  MEMB      39              0.0000000000
      5361        39  DOPC      C312          -12.8768870369      -24.8922942118        4.0433388756  MEMB      39              0.0000000000
      5362        39  DOPC      H12X          -13.3631938638      -25.7630348676        3.5468263436  MEMB      39              0.0000000000
      5363        39  DOPC      H12Y          -11.8204250348      -25.1836929742        4.2481769178  MEMB      39              0.0000000000
      5364        39  DOPC      C313          -12.8412628519      -23.7154115055        3.0393798982  MEMB      39              0.0000000000
      5365        39  DOPC      H13X          -13.8627019963      -23.5853807825        2.6171576683  MEMB      39              0.0000000000
      5366        39  DOPC      H13Y          -12.5393808202      -22.7663618039        3.5316287460  MEMB      39              0.0000000000
      5367        39  DOPC      C314          -11.8756235792      -24.0423546551        1.8934709101  MEMB      39              0.0000000000
      5368        39  DOPC      H14X          -10.8307322987      -24.0971632934        2.2691188956  MEMB      39              0.0000000000
      5369        39  DOPC      H14Y          -12.1432063849      -25.0737539028        1.6149208251  MEMB      39              0.0000000000
      5370        39  DOPC      C315          -11.8911687716      -23.1206726808        0.6592943478  MEMB      39              0.0000000000
      5371        39  DOPC      H15X          -11.1997920829      -23.5553764095       -0.1027238578  MEMB      39              0.0000000000
      5372        39  DOPC      H15Y          -11.4879866729      -22.1220772783        0.9370555319  MEMB      39              0.0000000000
      5373        39  DOPC      C316          -13.2425038729      -22.8983862394       -0.0386544737  MEMB      39              0.0000000000
      5374        39  DOPC      H16X          -13.7066140237      -23.8747858399       -0.2996078910  MEMB      39              0.0000000000
      5375        39  DOPC      H16Y          -13.9417591163      -22.3666365514        0.6407053165  MEMB      39              0.0000000000
      5376        39  DOPC      C317          -13.0161836301      -22.1051964001       -1.3345590752  MEMB      39              0.0000000000
      5377        39  DOPC      H17X          -13.8819016597      -21.4425112121       -1.5590997440  MEMB      39              0.0000000000
      5378        39  DOPC      H17Y          -12.1329530303      -21.4383323406       -1.1874830033  MEMB      39              0.0000000000
      5379        39  DOPC      C318          -12.7562302803      -23.0496036573       -2.5131063894  MEMB      39              0.0000000000
      5380        39  DOPC      H18X          -13.6193741369      -23.0578329136       -3.2109115237  MEMB      39              0.0000000000
      5381        39  DOPC      H18Y          -11.8394011606      -22.7575058835       -3.0665596168  MEMB      39              0.0000000000
      5382        39  DOPC      H18Z          -12.6067361543      -24.0833468456       -2.1306161563  MEMB      39              0.0000000000
      5383        40  DOPC      N             -26.6049930934      -13.1411503495       17.8745210750  MEMB      40              0.0000000000
      5384        40  DOPC      C12           -25.2162189645      -13.5867910078       18.3087159460  MEMB      40              0.0000000000
      5385        40  DOPC      H12A          -24.4638402660      -13.0533250636       17.7485041580  MEMB      40              0.0000000000
      5386        40  DOPC      H12B          -25.0560984766      -14.6345362890       18.0458300979  MEMB      40              0.0000000000
      5387        40  DOPC      C13           -27.6186336328      -14.0938980459       18.4348081782  MEMB      40              0.0000000000
      5388        40  DOPC      H13A          -28.6192846804      -13.8710578722       18.0899157746  MEMB      40              0.0000000000
      5389        40  DOPC      H13B          -27.3540589520      -15.1114920512       18.1643837321  MEMB      40              0.0000000000
      5390        40  DOPC      H13C          -27.5804856377      -14.0749535622       19.5229849908  MEMB      40              0.0000000000
      5391        40  DOPC      C14           -26.6975018906      -13.1541830452       16.3835566958  MEMB      40              0.0000000000
      5392        40  DOPC      H14A          -27.6936580515      -12.8472698175       16.0845850847  MEMB      40              0.0000000000
      5393        40  DOPC      H14B          -25.9870025441      -12.4758157839       15.9274790002  MEMB      40              0.0000000000
      5394        40  DOPC      H14C          -26.5155027851      -14.1397767035       15.9735436885  MEMB      40              0.0000000000
      5395        40  DOPC      C15           -26.9224985518      -11.7478520685       18.3247202223  MEMB      40              0.0000000000
      5396        40  DOPC      H15A          -26.2735691985      -11.0074280074       17.8667216767  MEMB      40              0.0000000000
      5397        40  DOPC      H15B          -26.8066372871      -11.6885677480       19.4020858649  MEMB      40              0.0000000000
      5398        40  DOPC      H15C          -27.9459386272      -11.4882217854       18.0622971340  MEMB      40              0.0000000000
      5399        40  DOPC      C11           -24.8033457999      -13.5035767052       19.7982420435  MEMB      40              0.0000000000
      5400        40  DOPC      H11A          -23.6867201046      -13.5614019690       19.8677224861  MEMB      40              0.0000000000
      5401        40  DOPC      H11B          -25.0934613492      -12.5244917607       20.2304957156  MEMB      40              0.0000000000
      5402        40  DOPC      P             -24.9442172217      -16.0543130526       20.3298918052  MEMB      40              0.0000000000
      5403        40  DOPC      O13           -26.1928257941      -16.8053845659       20.0126092017  MEMB      40              0.0000000000
      5404        40  DOPC      O14           -24.1533076182      -16.5411510671       21.4725716217  MEMB      40              0.0000000000
      5405        40  DOPC      O12           -25.4044762154      -14.5464053197       20.5461963290  MEMB      40              0.0000000000
      5406        40  DOPC      O11           -24.0723862117      -16.0134870012       18.9820794035  MEMB      40              0.0000000000
      5407        40  DOPC      C1            -23.7597866728      -17.2931507463       18.4124942393  MEMB      40              0.0000000000
      5408        40  DOPC      HA            -24.6927100821      -17.8224172304       18.1092125191  MEMB      40              0.0000000000
      5409        40  DOPC      HB            -23.2041914506      -17.9432009703       19.1388684704  MEMB      40              0.0000000000
      5410        40  DOPC      C2            -22.8776194881      -17.2581166048       17.1275436314  MEMB      40              0.0000000000
      5411        40  DOPC      HS            -21.8133354983      -17.1185174054       17.4407990481  MEMB      40              0.0000000000
      5412        40  DOPC      O21           -23.3016681103      -16.2521609234       16.1560714219  MEMB      40              0.0000000000
      5413        40  DOPC      C21           -22.7645045470      -15.0715743687       16.3595032329  MEMB      40              0.0000000000
      5414        40  DOPC      O22           -21.9721486511      -14.8120840527       17.2479073091  MEMB      40              0.0000000000
      5415        40  DOPC      C22           -23.1533420540      -14.0715884768       15.2356092324  MEMB      40              0.0000000000
      5416        40  DOPC      H2R           -22.2234001701      -13.5003833256       15.0369502141  MEMB      40              0.0000000000
      5417        40  DOPC      H2S           -23.8887538435      -13.3716969126       15.6690971342  MEMB      40              0.0000000000
      5418        40  DOPC      C3            -22.9801973805      -18.6705823904       16.4875284544  MEMB      40              0.0000000000
      5419        40  DOPC      HX            -23.2109057749      -19.4223484566       17.2828910545  MEMB      40              0.0000000000
      5420        40  DOPC      HY            -21.9848021198      -18.9238202028       16.0792882816  MEMB      40              0.0000000000
      5421        40  DOPC      O31           -23.9641585661      -18.5982710068       15.4420442238  MEMB      40              0.0000000000
      5422        40  DOPC      C31           -24.9615286736      -19.4353673252       15.4066618985  MEMB      40              0.0000000000
      5423        40  DOPC      O32           -25.0102118016      -20.5774905582       15.8167343006  MEMB      40              0.0000000000
      5424        40  DOPC      C32           -26.1720075359      -18.6641776164       14.8458110092  MEMB      40              0.0000000000
      5425        40  DOPC      H2X           -26.1096403707      -18.6710063867       13.7396385129  MEMB      40              0.0000000000
      5426        40  DOPC      H2Y           -27.0760508996      -19.2218946718       15.1579964876  MEMB      40              0.0000000000
      5427        40  DOPC      C23           -23.6995989391      -14.5535017317       13.8553188861  MEMB      40              0.0000000000
      5428        40  DOPC      H3R           -24.7618265669      -14.8349458206       13.9895318400  MEMB      40              0.0000000000
      5429        40  DOPC      H3S           -23.1443134839      -15.4413056655       13.4859226580  MEMB      40              0.0000000000
      5430        40  DOPC      C24           -23.5958413843      -13.4217269354       12.8008598760  MEMB      40              0.0000000000
      5431        40  DOPC      H4R           -22.5363278721      -13.3104142120       12.4920221307  MEMB      40              0.0000000000
      5432        40  DOPC      H4S           -23.9228996788      -12.4795255412       13.2990120705  MEMB      40              0.0000000000
      5433        40  DOPC      C25           -24.4456327898      -13.5654540093       11.5230403191  MEMB      40              0.0000000000
      5434        40  DOPC      H5R           -25.4396118842      -13.9062871621       11.8473781618  MEMB      40              0.0000000000
      5435        40  DOPC      H5S           -24.0161454728      -14.3377509721       10.8472413980  MEMB      40              0.0000000000
      5436        40  DOPC      C26           -24.6249551303      -12.2336744941       10.7567880390  MEMB      40              0.0000000000
      5437        40  DOPC      H6R           -23.6590976046      -11.9728254403       10.2716267591  MEMB      40              0.0000000000
      5438        40  DOPC      H6S           -24.8493537158      -11.4308287712       11.4952939632  MEMB      40              0.0000000000
      5439        40  DOPC      C27           -25.7577766834      -12.1837344947        9.7002904955  MEMB      40              0.0000000000
      5440        40  DOPC      H7R           -25.6572276112      -11.2321451243        9.1257476279  MEMB      40              0.0000000000
      5441        40  DOPC      H7S           -26.7379484047      -12.1363127450       10.2244850678  MEMB      40              0.0000000000
      5442        40  DOPC      C28           -25.8157343971      -13.3564593810        8.7065407979  MEMB      40              0.0000000000
      5443        40  DOPC      H8R           -26.7339607177      -13.2550359258        8.0846231895  MEMB      40              0.0000000000
      5444        40  DOPC      H8S           -25.9131716117      -14.3164686763        9.2540046054  MEMB      40              0.0000000000
      5445        40  DOPC      C29           -24.5658224056      -13.3754462077        7.8786133043  MEMB      40              0.0000000000
      5446        40  DOPC      H9R           -23.6627471813      -13.6474690058        8.4447336060  MEMB      40              0.0000000000
      5447        40  DOPC      C210          -24.4539478072      -13.1751741683        6.5562209106  MEMB      40              0.0000000000
      5448        40  DOPC      H10R          -23.4505144828      -13.2408051310        6.1067751140  MEMB      40              0.0000000000
      5449        40  DOPC      C211          -25.5565030215      -12.8850411355        5.5714829491  MEMB      40              0.0000000000
      5450        40  DOPC      H11R          -25.2490395895      -12.0875303210        4.8619009096  MEMB      40              0.0000000000
      5451        40  DOPC      H11S          -26.5016819354      -12.5611439408        6.0571401154  MEMB      40              0.0000000000
      5452        40  DOPC      C212          -25.7671189061      -14.2103493082        4.8310998202  MEMB      40              0.0000000000
      5453        40  DOPC      H12R          -26.1546124119      -14.9602717057        5.5556419298  MEMB      40              0.0000000000
      5454        40  DOPC      H12S          -24.7788425029      -14.5560684788        4.4387259417  MEMB      40              0.0000000000
      5455        40  DOPC      C213          -26.7200163081      -14.2006347910        3.6416046621  MEMB      40              0.0000000000
      5456        40  DOPC      H13R          -26.8688396206      -13.1506836686        3.2984137547  MEMB      40              0.0000000000
      5457        40  DOPC      H13S          -27.7060355547      -14.6179937765        3.9376428533  MEMB      40              0.0000000000
      5458        40  DOPC      C214          -26.1699380717      -15.0115539569        2.4629575778  MEMB      40              0.0000000000
      5459        40  DOPC      H14R          -25.1761631017      -14.5847618964        2.1855780806  MEMB      40              0.0000000000
      5460        40  DOPC      H14S          -26.8739145953      -14.8599146084        1.6235336791  MEMB      40              0.0000000000
      5461        40  DOPC      C215          -25.9958438261      -16.5250593545        2.6359830953  MEMB      40              0.0000000000
      5462        40  DOPC      H15R          -25.2304642988      -16.7075005628        3.4161962194  MEMB      40              0.0000000000
      5463        40  DOPC      H15S          -25.5745463125      -16.9280971009        1.6879666578  MEMB      40              0.0000000000
      5464        40  DOPC      C216          -27.2712956846      -17.3289282165        2.9365588114  MEMB      40              0.0000000000
      5465        40  DOPC      H16R          -27.5812104782      -17.1381952373        3.9878917956  MEMB      40              0.0000000000
      5466        40  DOPC      H16S          -27.0031720312      -18.4099463256        2.8697554655  MEMB      40              0.0000000000
      5467        40  DOPC      C217          -28.4921158926      -17.0518074750        2.0312862614  MEMB      40              0.0000000000
      5468        40  DOPC      H17R          -29.0204131771      -16.1514094493        2.4199252442  MEMB      40              0.0000000000
      5469        40  DOPC      H17S          -29.1840130112      -17.9119544652        2.1620894948  MEMB      40              0.0000000000
      5470        40  DOPC      C218          -28.2468205194      -16.8571175984        0.5275258495  MEMB      40              0.0000000000
      5471        40  DOPC      H18R          -28.1054640803      -15.7832314754        0.2854344082  MEMB      40              0.0000000000
      5472        40  DOPC      H18S          -29.1221762523      -17.2049103637       -0.0618335799  MEMB      40              0.0000000000
      5473        40  DOPC      H18T          -27.3468889515      -17.4057896063        0.1830754344  MEMB      40              0.0000000000
      5474        40  DOPC      C33           -26.2727249329      -17.2030442927       15.3797751472  MEMB      40              0.0000000000
      5475        40  DOPC      H3X           -25.4877084398      -16.5834367022       14.9001931637  MEMB      40              0.0000000000
      5476        40  DOPC      H3Y           -26.0566192247      -17.1900595060       16.4745407282  MEMB      40              0.0000000000
      5477        40  DOPC      C34           -27.6576180298      -16.5529614990       15.2090323148  MEMB      40              0.0000000000
      5478        40  DOPC      H4X           -27.6831635814      -15.5780373595       15.7334892745  MEMB      40              0.0000000000
      5479        40  DOPC      H4Y           -28.3770647989      -17.2121244851       15.7369107253  MEMB      40              0.0000000000
      5480        40  DOPC      C35           -28.1381551505      -16.3117067435       13.7616949675  MEMB      40              0.0000000000
      5481        40  DOPC      H5X           -29.1617477976      -15.8672029737       13.7843945310  MEMB      40              0.0000000000
      5482        40  DOPC      H5Y           -28.2098857815      -17.2938042774       13.2422467141  MEMB      40              0.0000000000
      5483        40  DOPC      C36           -27.2593429238      -15.3543377178       12.9465349349  MEMB      40              0.0000000000
      5484        40  DOPC      H6X           -27.1253696726      -14.4014193502       13.5016782237  MEMB      40              0.0000000000
      5485        40  DOPC      H6Y           -26.2544138263      -15.8163890192       12.8356158608  MEMB      40              0.0000000000
      5486        40  DOPC      C37           -27.8227985504      -15.0253159637       11.5444400225  MEMB      40              0.0000000000
      5487        40  DOPC      H7X           -28.7305952709      -14.3933413801       11.6466016516  MEMB      40              0.0000000000
      5488        40  DOPC      H7Y           -27.1058650197      -14.4123593520       10.9651090561  MEMB      40              0.0000000000
      5489        40  DOPC      C38           -28.1377989070      -16.2663908201       10.6966119694  MEMB      40              0.0000000000
      5490        40  DOPC      H8X           -28.5142999872      -15.9381676582        9.7028073788  MEMB      40              0.0000000000
      5491        40  DOPC      H8Y           -28.9461671147      -16.8153041612       11.2171327776  MEMB      40              0.0000000000
      5492        40  DOPC      C39           -26.9224413367      -17.1484376205       10.6087828840  MEMB      40              0.0000000000
      5493        40  DOPC      H9X           -26.5615414729      -17.4865897081       11.5909188279  MEMB      40              0.0000000000
      5494        40  DOPC      C310          -26.2537263736      -17.5930856483        9.5394411460  MEMB      40              0.0000000000
      5495        40  DOPC      H10X          -25.3151230877      -18.1232592819        9.7450342013  MEMB      40              0.0000000000
      5496        40  DOPC      C311          -26.4801731324      -17.3707206704        8.0688180015  MEMB      40              0.0000000000
      5497        40  DOPC      H11X          -27.2593612136      -16.6068366166        7.8546052208  MEMB      40              0.0000000000
      5498        40  DOPC      H11Y          -26.8144181074      -18.3184569906        7.5969437162  MEMB      40              0.0000000000
      5499        40  DOPC      C312          -25.1357617954      -16.9482488308        7.4506257215  MEMB      40              0.0000000000
      5500        40  DOPC      H12X          -24.2682739940      -17.4165207359        7.9551775017  MEMB      40              0.0000000000
      5501        40  DOPC      H12Y          -25.0390193527      -15.8598276928        7.6285872003  MEMB      40              0.0000000000
      5502        40  DOPC      C313          -25.0003995250      -17.1761380301        5.9402293716  MEMB      40              0.0000000000
      5503        40  DOPC      H13X          -26.0073517855      -17.1464464079        5.4720082929  MEMB      40              0.0000000000
      5504        40  DOPC      H13Y          -24.4107330881      -16.3234008301        5.5388309448  MEMB      40              0.0000000000
      5505        40  DOPC      C314          -24.2478594881      -18.4329175431        5.4828285112  MEMB      40              0.0000000000
      5506        40  DOPC      H14X          -24.9366076846      -19.2792606761        5.6127305263  MEMB      40              0.0000000000
      5507        40  DOPC      H14Y          -24.0605132974      -18.3532178734        4.3872366572  MEMB      40              0.0000000000
      5508        40  DOPC      C315          -22.9053372471      -18.6990224321        6.1894689272  MEMB      40              0.0000000000
      5509        40  DOPC      H15X          -22.4365596291      -19.6028629880        5.7443214929  MEMB      40              0.0000000000
      5510        40  DOPC      H15Y          -23.0872424204      -18.9649376343        7.2518371955  MEMB      40              0.0000000000
      5511        40  DOPC      C316          -21.9264789744      -17.5088651399        6.1141919697  MEMB      40              0.0000000000
      5512        40  DOPC      H16X          -22.3483212616      -16.6628514221        6.7041091317  MEMB      40              0.0000000000
      5513        40  DOPC      H16Y          -20.9631903925      -17.7894727951        6.5951126331  MEMB      40              0.0000000000
      5514        40  DOPC      C317          -21.6648260598      -16.9947472857        4.6859397134  MEMB      40              0.0000000000
      5515        40  DOPC      H17X          -22.5729785724      -16.4447667477        4.3470118834  MEMB      40              0.0000000000
      5516        40  DOPC      H17Y          -20.8459007367      -16.2427266591        4.7147701332  MEMB      40              0.0000000000
      5517        40  DOPC      C318          -21.3621038019      -18.0689252297        3.6348824753  MEMB      40              0.0000000000
      5518        40  DOPC      H18X          -21.9750644627      -17.8850555693        2.7283173273  MEMB      40              0.0000000000
      5519        40  DOPC      H18Y          -20.3067056783      -18.0792268982        3.3231922228  MEMB      40              0.0000000000
      5520        40  DOPC      H18Z          -21.5799642508      -19.0924935600        3.9888582480  MEMB      40              0.0000000000
      5521        41  DOPC      N              10.0021034232       31.1256304630       18.8666868987  MEMB      41              0.0000000000
      5522        41  DOPC      C12             9.8365325634       29.9857282449       17.8724241294  MEMB      41              0.0000000000
      5523        41  DOPC      H12A           10.6350762209       29.2750551291       18.0953171403  MEMB      41              0.0000000000
      5524        41  DOPC      H12B           10.0084931401       30.3514178245       16.8681381703  MEMB      41              0.0000000000
      5525        41  DOPC      C13             8.6861978032       31.7950365264       19.1581919330  MEMB      41              0.0000000000
      5526        41  DOPC      H13A            8.2951014616       32.3540109021       18.3216742190  MEMB      41              0.0000000000
      5527        41  DOPC      H13B            7.9432677860       31.0457101936       19.4476121983  MEMB      41              0.0000000000
      5528        41  DOPC      H13C            8.7658431625       32.4901514796       19.9858858697  MEMB      41              0.0000000000
      5529        41  DOPC      C14            11.0156416929       32.0860029015       18.3279852055  MEMB      41              0.0000000000
      5530        41  DOPC      H14A           10.6750636414       32.5712801859       17.4169388877  MEMB      41              0.0000000000
      5531        41  DOPC      H14B           11.2484445942       32.8666224614       19.0364326002  MEMB      41              0.0000000000
      5532        41  DOPC      H14C           11.9493003579       31.5772927781       18.0722976523  MEMB      41              0.0000000000
      5533        41  DOPC      C15            10.4689126770       30.5310239273       20.1627247389  MEMB      41              0.0000000000
      5534        41  DOPC      H15A           10.6134785254       31.2619331951       20.9421523253  MEMB      41              0.0000000000
      5535        41  DOPC      H15B           11.3634111585       29.9354647074       20.0306031023  MEMB      41              0.0000000000
      5536        41  DOPC      H15C            9.7045525488       29.8297134519       20.5182501200  MEMB      41              0.0000000000
      5537        41  DOPC      C11             8.5465418590       29.1334949096       17.9222549174  MEMB      41              0.0000000000
      5538        41  DOPC      H11A            7.6780926745       29.7645385970       17.6262563120  MEMB      41              0.0000000000
      5539        41  DOPC      H11B            8.6192389571       28.3241517178       17.1540529720  MEMB      41              0.0000000000
      5540        41  DOPC      P               9.1022022848       27.3112493556       19.7447697635  MEMB      41              0.0000000000
      5541        41  DOPC      O13             8.7141357803       26.1461121870       18.9286083460  MEMB      41              0.0000000000
      5542        41  DOPC      O14             8.8873602696       27.1643713533       21.2066932339  MEMB      41              0.0000000000
      5543        41  DOPC      O12             8.3239998787       28.5981230547       19.2284506159  MEMB      41              0.0000000000
      5544        41  DOPC      O11            10.5847372860       27.7848387938       19.4446299864  MEMB      41              0.0000000000
      5545        41  DOPC      C1             11.6522867477       26.9061185692       19.1757747972  MEMB      41              0.0000000000
      5546        41  DOPC      HA             11.3227344206       26.0178419608       18.5926088239  MEMB      41              0.0000000000
      5547        41  DOPC      HB             12.0676415770       26.5466766931       20.1437813057  MEMB      41              0.0000000000
      5548        41  DOPC      C2             12.7796236742       27.6307985869       18.3843799526  MEMB      41              0.0000000000
      5549        41  DOPC      HS             12.9692617294       28.6084623091       18.8866850215  MEMB      41              0.0000000000
      5550        41  DOPC      O21            12.4194449302       27.7722156004       16.9950299145  MEMB      41              0.0000000000
      5551        41  DOPC      C21            12.4857658894       28.9776860373       16.4328606319  MEMB      41              0.0000000000
      5552        41  DOPC      O22            12.8144228408       30.0002588835       17.0115957800  MEMB      41              0.0000000000
      5553        41  DOPC      C22            11.9714092024       28.8417008369       14.9931411184  MEMB      41              0.0000000000
      5554        41  DOPC      H2R            10.9136452428       28.5132497738       15.0790873090  MEMB      41              0.0000000000
      5555        41  DOPC      H2S            12.5309920156       28.0153243224       14.5113448534  MEMB      41              0.0000000000
      5556        41  DOPC      C3             14.0461500690       26.7479974925       18.4806764032  MEMB      41              0.0000000000
      5557        41  DOPC      HX             14.4783733971       26.9210316711       19.4930821811  MEMB      41              0.0000000000
      5558        41  DOPC      HY             14.7883655334       27.0767949518       17.7292280843  MEMB      41              0.0000000000
      5559        41  DOPC      O31            13.7104745210       25.3500807065       18.3588435825  MEMB      41              0.0000000000
      5560        41  DOPC      C31            13.7030017825       24.8061708159       17.1392919742  MEMB      41              0.0000000000
      5561        41  DOPC      O32            14.5911223573       24.8983005423       16.3141747447  MEMB      41              0.0000000000
      5562        41  DOPC      C32            12.4079512261       24.0419806374       16.9661752314  MEMB      41              0.0000000000
      5563        41  DOPC      H2X            12.7309678024       23.0672681211       16.5393848499  MEMB      41              0.0000000000
      5564        41  DOPC      H2Y            11.8921751347       23.8270288836       17.9176164780  MEMB      41              0.0000000000
      5565        41  DOPC      C23            12.0231822821       30.0972684524       14.0823977107  MEMB      41              0.0000000000
      5566        41  DOPC      H3R            12.9510054745       30.0707220920       13.4642374676  MEMB      41              0.0000000000
      5567        41  DOPC      H3S            12.0590525262       31.0381792465       14.6764619236  MEMB      41              0.0000000000
      5568        41  DOPC      C24            10.7934504978       30.1395214680       13.1561521865  MEMB      41              0.0000000000
      5569        41  DOPC      H4R             9.8949174590       30.2867910363       13.7978973332  MEMB      41              0.0000000000
      5570        41  DOPC      H4S            10.6851566511       29.1620606507       12.6335127848  MEMB      41              0.0000000000
      5571        41  DOPC      C25            10.8214755075       31.2559399547       12.1019597159  MEMB      41              0.0000000000
      5572        41  DOPC      H5R            11.5828879999       31.0382270132       11.3226459101  MEMB      41              0.0000000000
      5573        41  DOPC      H5S            11.1226196567       32.2059009154       12.6053938445  MEMB      41              0.0000000000
      5574        41  DOPC      C26             9.4544095560       31.4980997398       11.4341206030  MEMB      41              0.0000000000
      5575        41  DOPC      H6R             9.5568950536       32.3320252230       10.7222101219  MEMB      41              0.0000000000
      5576        41  DOPC      H6S             8.7548868125       31.8202990420       12.2297664715  MEMB      41              0.0000000000
      5577        41  DOPC      C27             8.8318172332       30.3332130655       10.6508376861  MEMB      41              0.0000000000
      5578        41  DOPC      H7R             7.8397640507       30.6385978047       10.2482050293  MEMB      41              0.0000000000
      5579        41  DOPC      H7S             8.6273065805       29.5172834413       11.3632042257  MEMB      41              0.0000000000
      5580        41  DOPC      C28             9.6972766106       29.7989930729        9.4967783017  MEMB      41              0.0000000000
      5581        41  DOPC      H8R             9.1616782953       28.9266543817        9.0707151101  MEMB      41              0.0000000000
      5582        41  DOPC      H8S            10.6567899430       29.4142029276        9.9119573116  MEMB      41              0.0000000000
      5583        41  DOPC      C29             9.9444773637       30.8059043405        8.4016177360  MEMB      41              0.0000000000
      5584        41  DOPC      H9R             9.4263302180       31.7708219985        8.5055691731  MEMB      41              0.0000000000
      5585        41  DOPC      C210           10.7624574834       30.5981554795        7.3567242767  MEMB      41              0.0000000000
      5586        41  DOPC      H10R           10.9253485406       31.3979205422        6.6186708034  MEMB      41              0.0000000000
      5587        41  DOPC      C211           11.5428876677       29.3308500601        7.1357049185  MEMB      41              0.0000000000
      5588        41  DOPC      H11R           11.1378429161       28.4801943860        7.7304956143  MEMB      41              0.0000000000
      5589        41  DOPC      H11S           12.5760820159       29.4975997471        7.5071734446  MEMB      41              0.0000000000
      5590        41  DOPC      C212           11.6380765677       28.8700290594        5.6638315513  MEMB      41              0.0000000000
      5591        41  DOPC      H12R           10.6654561094       28.9716598323        5.1445847047  MEMB      41              0.0000000000
      5592        41  DOPC      H12S           11.8915610617       27.7874645536        5.6982296937  MEMB      41              0.0000000000
      5593        41  DOPC      C213           12.7524191117       29.6219634015        4.9238449422  MEMB      41              0.0000000000
      5594        41  DOPC      H13R           13.6141942462       29.6240038916        5.6201312365  MEMB      41              0.0000000000
      5595        41  DOPC      H13S           12.4673962558       30.6870914478        4.7946838857  MEMB      41              0.0000000000
      5596        41  DOPC      C214           13.2996441535       29.0566384307        3.5951785421  MEMB      41              0.0000000000
      5597        41  DOPC      H14R           14.4040409571       29.1177212394        3.6159965991  MEMB      41              0.0000000000
      5598        41  DOPC      H14S           12.9938200490       29.7247174265        2.7700842028  MEMB      41              0.0000000000
      5599        41  DOPC      C215           12.9420292372       27.6270124934        3.2004484688  MEMB      41              0.0000000000
      5600        41  DOPC      H15R           11.9948094632       27.7546964767        2.6414734315  MEMB      41              0.0000000000
      5601        41  DOPC      H15S           12.7787369243       26.9593625515        4.0687382740  MEMB      41              0.0000000000
      5602        41  DOPC      C216           13.9559490580       26.9696258974        2.2550007584  MEMB      41              0.0000000000
      5603        41  DOPC      H16R           14.6098880271       26.2774467312        2.8292781065  MEMB      41              0.0000000000
      5604        41  DOPC      H16S           14.6021065287       27.7618830434        1.8128752916  MEMB      41              0.0000000000
      5605        41  DOPC      C217           13.2536378165       26.2330945017        1.1092142765  MEMB      41              0.0000000000
      5606        41  DOPC      H17R           12.5560201440       26.9530973491        0.6200935187  MEMB      41              0.0000000000
      5607        41  DOPC      H17S           12.6385368190       25.4026172330        1.5259982173  MEMB      41              0.0000000000
      5608        41  DOPC      C218           14.1993423827       25.6872661053        0.0425859129  MEMB      41              0.0000000000
      5609        41  DOPC      H18R           14.9755896192       26.4378467388       -0.2258981724  MEMB      41              0.0000000000
      5610        41  DOPC      H18S           13.6212131630       25.4359044085       -0.8697498042  MEMB      41              0.0000000000
      5611        41  DOPC      H18T           14.7066434316       24.7650392339        0.3947740306  MEMB      41              0.0000000000
      5612        41  DOPC      C33            11.5027239459       24.7205909579       15.9185346030  MEMB      41              0.0000000000
      5613        41  DOPC      H3X            11.0814194696       23.8372789552       15.3915470259  MEMB      41              0.0000000000
      5614        41  DOPC      H3Y            12.0831488468       25.3346352549       15.1889748129  MEMB      41              0.0000000000
      5615        41  DOPC      C34            10.1764323810       25.4032791892       16.2706566158  MEMB      41              0.0000000000
      5616        41  DOPC      H4X            10.3138672365       26.4205148024       16.6864792619  MEMB      41              0.0000000000
      5617        41  DOPC      H4Y             9.6239293266       24.7805687035       17.0116757957  MEMB      41              0.0000000000
      5618        41  DOPC      C35             9.3670054453       25.4563816435       14.9619155028  MEMB      41              0.0000000000
      5619        41  DOPC      H5X             8.8291735626       24.4871958552       14.8504670072  MEMB      41              0.0000000000
      5620        41  DOPC      H5Y            10.0951736230       25.5182618163       14.1213021657  MEMB      41              0.0000000000
      5621        41  DOPC      C36             8.3879639791       26.6192333736       14.7854280582  MEMB      41              0.0000000000
      5622        41  DOPC      H6X             7.6859152505       26.6073360589       15.6496787713  MEMB      41              0.0000000000
      5623        41  DOPC      H6Y             8.9216312651       27.5916047066       14.7923276041  MEMB      41              0.0000000000
      5624        41  DOPC      C37             7.5975038480       26.4566048202       13.4746254351  MEMB      41              0.0000000000
      5625        41  DOPC      H7X             7.2615994545       25.3975528525       13.4509043723  MEMB      41              0.0000000000
      5626        41  DOPC      H7Y             6.6982379131       27.1137775509       13.5119040643  MEMB      41              0.0000000000
      5627        41  DOPC      C38             8.3828872598       26.7294933212       12.1701589029  MEMB      41              0.0000000000
      5628        41  DOPC      H8X             9.3196336399       26.1570580127       12.1659272209  MEMB      41              0.0000000000
      5629        41  DOPC      H8Y             8.6664555117       27.7924031596       12.1726604839  MEMB      41              0.0000000000
      5630        41  DOPC      C39             7.5151747584       26.3711899797       10.9892145732  MEMB      41              0.0000000000
      5631        41  DOPC      H9X             6.4772846259       26.2099878737       11.3001501202  MEMB      41              0.0000000000
      5632        41  DOPC      C310            7.7614236723       26.1992290203        9.6742496047  MEMB      41              0.0000000000
      5633        41  DOPC      H10X            6.9139957485       25.8547711381        9.0674566491  MEMB      41              0.0000000000
      5634        41  DOPC      C311            8.9911301486       26.2862333595        8.8099098605  MEMB      41              0.0000000000
      5635        41  DOPC      H11X            9.9166015552       26.4557379268        9.4000237395  MEMB      41              0.0000000000
      5636        41  DOPC      H11Y            8.9022079801       27.1310214034        8.0921114923  MEMB      41              0.0000000000
      5637        41  DOPC      C312            9.0249009697       24.9814330509        7.9793753149  MEMB      41              0.0000000000
      5638        41  DOPC      H12X            8.0076275145       24.6922193482        7.6375191955  MEMB      41              0.0000000000
      5639        41  DOPC      H12Y            9.3732216160       24.1622706737        8.6448630638  MEMB      41              0.0000000000
      5640        41  DOPC      C313            9.8995429474       25.0130395727        6.7163825968  MEMB      41              0.0000000000
      5641        41  DOPC      H13X           10.9065251811       25.4273327657        6.9387832791  MEMB      41              0.0000000000
      5642        41  DOPC      H13Y           10.0310742215       23.9612382061        6.3686989834  MEMB      41              0.0000000000
      5643        41  DOPC      C314            9.2994336743       25.8010752860        5.5543844321  MEMB      41              0.0000000000
      5644        41  DOPC      H14X            8.2290164401       25.5368975520        5.4127223332  MEMB      41              0.0000000000
      5645        41  DOPC      H14Y            9.3529997795       26.8872967003        5.7937465861  MEMB      41              0.0000000000
      5646        41  DOPC      C315           10.0649412332       25.5225157737        4.2578807143  MEMB      41              0.0000000000
      5647        41  DOPC      H15X            9.7785650424       24.5332274080        3.8380800100  MEMB      41              0.0000000000
      5648        41  DOPC      H15Y           11.1537971929       25.4709510342        4.4949812465  MEMB      41              0.0000000000
      5649        41  DOPC      C316            9.8540562638       26.6274445465        3.2233758220  MEMB      41              0.0000000000
      5650        41  DOPC      H16X           10.1201871910       27.5998478667        3.6904746206  MEMB      41              0.0000000000
      5651        41  DOPC      H16Y           10.5394087852       26.4461600458        2.3646458398  MEMB      41              0.0000000000
      5652        41  DOPC      C317            8.4492992352       26.7204954898        2.6446123971  MEMB      41              0.0000000000
      5653        41  DOPC      H17X            7.6870280685       26.6495365416        3.4520200698  MEMB      41              0.0000000000
      5654        41  DOPC      H17Y            8.3367546342       27.7196224496        2.1614231969  MEMB      41              0.0000000000
      5655        41  DOPC      C318            8.2403830906       25.6412503845        1.5912982117  MEMB      41              0.0000000000
      5656        41  DOPC      H18X            7.2888251056       25.7984032785        1.0487297261  MEMB      41              0.0000000000
      5657        41  DOPC      H18Y            9.0671742339       25.6463903111        0.8494730371  MEMB      41              0.0000000000
      5658        41  DOPC      H18Z            8.2271820551       24.6397890497        2.0675761369  MEMB      41              0.0000000000
      5659        42  DOPC      N              18.6189756285      -23.7669490607       21.0888417306  MEMB      42              0.0000000000
      5660        42  DOPC      C12            19.7856999865      -24.3811505706       20.3350697678  MEMB      42              0.0000000000
      5661        42  DOPC      H12A           19.5301241493      -25.4252508620       20.1052162205  MEMB      42              0.0000000000
      5662        42  DOPC      H12B           20.6476713895      -24.3976861482       20.9787991886  MEMB      42              0.0000000000
      5663        42  DOPC      C13            18.5542649109      -24.3952114584       22.4354311320  MEMB      42              0.0000000000
      5664        42  DOPC      H13A           18.3671297647      -25.4634396026       22.3652652756  MEMB      42              0.0000000000
      5665        42  DOPC      H13B           19.4728198773      -24.2392591909       22.9973324292  MEMB      42              0.0000000000
      5666        42  DOPC      H13C           17.7392321334      -23.9820133477       23.0198408623  MEMB      42              0.0000000000
      5667        42  DOPC      C14            17.3411158931      -24.0926363331       20.3574954845  MEMB      42              0.0000000000
      5668        42  DOPC      H14A           16.4550969393      -23.6925847327       20.8166675469  MEMB      42              0.0000000000
      5669        42  DOPC      H14B           17.3884165602      -23.7073444061       19.3353083255  MEMB      42              0.0000000000
      5670        42  DOPC      H14C           17.2519911837      -25.1725443795       20.2451280776  MEMB      42              0.0000000000
      5671        42  DOPC      C15            18.7908561709      -22.2796010115       21.2120210883  MEMB      42              0.0000000000
      5672        42  DOPC      H15A           18.7522832873      -21.8235496167       20.2285193409  MEMB      42              0.0000000000
      5673        42  DOPC      H15B           19.7384965555      -22.0158945085       21.6855316147  MEMB      42              0.0000000000
      5674        42  DOPC      H15C           18.0334876453      -21.8492189362       21.8543214965  MEMB      42              0.0000000000
      5675        42  DOPC      C11            20.1791057510      -23.7484087827       18.9817326382  MEMB      42              0.0000000000
      5676        42  DOPC      H11A           20.3945157642      -22.6661865952       19.1044750427  MEMB      42              0.0000000000
      5677        42  DOPC      H11B           21.1303699692      -24.2106073545       18.6161566578  MEMB      42              0.0000000000
      5678        42  DOPC      P              18.8906138414      -25.3673498324       17.4343530304  MEMB      42              0.0000000000
      5679        42  DOPC      O13            18.6250867198      -26.2422230970       18.5972454907  MEMB      42              0.0000000000
      5680        42  DOPC      O14            20.0462459746      -25.7028668322       16.5777331933  MEMB      42              0.0000000000
      5681        42  DOPC      O12            19.1238993534      -23.9080036643       18.0351869790  MEMB      42              0.0000000000
      5682        42  DOPC      O11            17.6106808291      -25.1851925267       16.5367841546  MEMB      42              0.0000000000
      5683        42  DOPC      C1             16.2554439166      -25.2462573063       16.9643861666  MEMB      42              0.0000000000
      5684        42  DOPC      HA             16.0916596640      -24.6559740228       17.8869702149  MEMB      42              0.0000000000
      5685        42  DOPC      HB             15.9996551971      -26.2999225437       17.1987954823  MEMB      42              0.0000000000
      5686        42  DOPC      C2             15.2381453754      -24.7510510848       15.8756036222  MEMB      42              0.0000000000
      5687        42  DOPC      HS             14.2936400134      -25.3262534488       16.0346410568  MEMB      42              0.0000000000
      5688        42  DOPC      O21            15.7703438556      -24.9572630865       14.5593203804  MEMB      42              0.0000000000
      5689        42  DOPC      C21            14.9063189669      -25.1812319692       13.5996500254  MEMB      42              0.0000000000
      5690        42  DOPC      O22            13.7056294347      -25.3529336708       13.7256417247  MEMB      42              0.0000000000
      5691        42  DOPC      C22            15.6729974474      -25.2068125134       12.2762768384  MEMB      42              0.0000000000
      5692        42  DOPC      H2R            15.6693951562      -26.2538762243       11.9159491805  MEMB      42              0.0000000000
      5693        42  DOPC      H2S            16.7287864861      -24.9149825824       12.4651073669  MEMB      42              0.0000000000
      5694        42  DOPC      C3             14.8750893488      -23.2445113111       16.0278985499  MEMB      42              0.0000000000
      5695        42  DOPC      HX             14.4115446944      -23.0946598431       17.0275401072  MEMB      42              0.0000000000
      5696        42  DOPC      HY             14.0835827563      -23.0059281625       15.2750567160  MEMB      42              0.0000000000
      5697        42  DOPC      O31            16.0177133412      -22.3852837888       15.8134165266  MEMB      42              0.0000000000
      5698        42  DOPC      C31            16.7032833934      -22.0468804168       16.8843882545  MEMB      42              0.0000000000
      5699        42  DOPC      O32            16.3961469394      -22.2500893818       18.0505774187  MEMB      42              0.0000000000
      5700        42  DOPC      C32            17.8319176319      -21.0984368042       16.5130658626  MEMB      42              0.0000000000
      5701        42  DOPC      H2X            17.4146201872      -20.2629818086       15.9174688345  MEMB      42              0.0000000000
      5702        42  DOPC      H2Y            18.1378642423      -20.7650180671       17.5186432073  MEMB      42              0.0000000000
      5703        42  DOPC      C23            15.0565480564      -24.2698392615       11.2151831051  MEMB      42              0.0000000000
      5704        42  DOPC      H3R            13.9912639995      -24.5176100335       11.0187908177  MEMB      42              0.0000000000
      5705        42  DOPC      H3S            15.6020503642      -24.4349049824       10.2575935532  MEMB      42              0.0000000000
      5706        42  DOPC      C24            15.1883863267      -22.7829996127       11.5824944504  MEMB      42              0.0000000000
      5707        42  DOPC      H4R            16.1978331529      -22.5859875162       12.0088281592  MEMB      42              0.0000000000
      5708        42  DOPC      H4S            14.4373662837      -22.5160514325       12.3590432105  MEMB      42              0.0000000000
      5709        42  DOPC      C25            14.9867261120      -21.9022182448       10.3450428992  MEMB      42              0.0000000000
      5710        42  DOPC      H5R            13.9589022565      -22.0885593478        9.9597006665  MEMB      42              0.0000000000
      5711        42  DOPC      H5S            15.6823892833      -22.2254485429        9.5432983803  MEMB      42              0.0000000000
      5712        42  DOPC      C26            15.1497924377      -20.3943062077       10.5924511571  MEMB      42              0.0000000000
      5713        42  DOPC      H6R            14.4636645610      -20.1011897616       11.4204078144  MEMB      42              0.0000000000
      5714        42  DOPC      H6S            14.8411533309      -19.8482031208        9.6722882012  MEMB      42              0.0000000000
      5715        42  DOPC      C27            16.5486104566      -19.8931792776       10.9440227824  MEMB      42              0.0000000000
      5716        42  DOPC      H7R            16.7867071035      -20.2633000244       11.9691745441  MEMB      42              0.0000000000
      5717        42  DOPC      H7S            16.5165933361      -18.7838303535       10.9775230162  MEMB      42              0.0000000000
      5718        42  DOPC      C28            17.6729775260      -20.3587976910       10.0050930031  MEMB      42              0.0000000000
      5719        42  DOPC      H8R            17.5333551573      -21.4461984014        9.8771537431  MEMB      42              0.0000000000
      5720        42  DOPC      H8S            18.6282924131      -20.2543441736       10.5601165847  MEMB      42              0.0000000000
      5721        42  DOPC      C29            17.8508555104      -19.6915052387        8.6670658561  MEMB      42              0.0000000000
      5722        42  DOPC      H9R            17.9639527470      -18.5953452685        8.6979746024  MEMB      42              0.0000000000
      5723        42  DOPC      C210           17.8627579687      -20.3238498106        7.4757170061  MEMB      42              0.0000000000
      5724        42  DOPC      H10R           17.9924299815      -19.7186516964        6.5677931379  MEMB      42              0.0000000000
      5725        42  DOPC      C211           17.6931749385      -21.8117099343        7.2427738369  MEMB      42              0.0000000000
      5726        42  DOPC      H11R           16.6742140970      -22.1482829583        7.5043800260  MEMB      42              0.0000000000
      5727        42  DOPC      H11S           18.3347766185      -22.3574655610        7.9595803312  MEMB      42              0.0000000000
      5728        42  DOPC      C212           18.0308597806      -22.4808327335        5.8855461445  MEMB      42              0.0000000000
      5729        42  DOPC      H12R           17.5752661763      -23.4934716872        5.8782712147  MEMB      42              0.0000000000
      5730        42  DOPC      H12S           19.1280646614      -22.6127161864        5.9722735402  MEMB      42              0.0000000000
      5731        42  DOPC      C213           17.7997071256      -21.7917699113        4.5295361647  MEMB      42              0.0000000000
      5732        42  DOPC      H13R           18.6771752039      -22.0358768622        3.8892656255  MEMB      42              0.0000000000
      5733        42  DOPC      H13S           17.8423320640      -20.6927888455        4.6449238744  MEMB      42              0.0000000000
      5734        42  DOPC      C214           16.5768549613      -22.2380542558        3.6901130406  MEMB      42              0.0000000000
      5735        42  DOPC      H14R           16.7462749263      -21.8335556982        2.6700511494  MEMB      42              0.0000000000
      5736        42  DOPC      H14S           15.6538768151      -21.7541428138        4.0503781789  MEMB      42              0.0000000000
      5737        42  DOPC      C215           16.2831888976      -23.7487537305        3.6329083887  MEMB      42              0.0000000000
      5738        42  DOPC      H15R           15.7497679340      -24.0401481891        4.5667124662  MEMB      42              0.0000000000
      5739        42  DOPC      H15S           17.2338207960      -24.3124589752        3.6360325746  MEMB      42              0.0000000000
      5740        42  DOPC      C216           15.4084343248      -24.1873556967        2.4385549469  MEMB      42              0.0000000000
      5741        42  DOPC      H16R           14.3902947923      -23.7661078018        2.5818898408  MEMB      42              0.0000000000
      5742        42  DOPC      H16S           15.2906373099      -25.2874143378        2.4156853859  MEMB      42              0.0000000000
      5743        42  DOPC      C217           15.9210833032      -23.7773718110        1.0545644087  MEMB      42              0.0000000000
      5744        42  DOPC      H17R           16.9894478118      -24.0466361261        0.9276303706  MEMB      42              0.0000000000
      5745        42  DOPC      H17S           15.8470071406      -22.6750992693        0.9982524959  MEMB      42              0.0000000000
      5746        42  DOPC      C218           15.1159958282      -24.3957519748       -0.0900513677  MEMB      42              0.0000000000
      5747        42  DOPC      H18R           15.4433122503      -23.9804317061       -1.0655944224  MEMB      42              0.0000000000
      5748        42  DOPC      H18S           14.0333467517      -24.1824825799        0.0438673513  MEMB      42              0.0000000000
      5749        42  DOPC      H18T           15.2583237579      -25.4992016488       -0.1109508402  MEMB      42              0.0000000000
      5750        42  DOPC      C33            19.1193218008      -21.6513373736       15.8754011723  MEMB      42              0.0000000000
      5751        42  DOPC      H3X            19.6596008815      -22.3605910724       16.5253536613  MEMB      42              0.0000000000
      5752        42  DOPC      H3Y            19.8159394806      -20.8018421476       15.7776959190  MEMB      42              0.0000000000
      5753        42  DOPC      C34            18.9320365376      -22.2249486530       14.4863652261  MEMB      42              0.0000000000
      5754        42  DOPC      H4X            18.8215311926      -21.3610742391       13.7934218890  MEMB      42              0.0000000000
      5755        42  DOPC      H4Y            18.0013993688      -22.8346485387       14.4438733579  MEMB      42              0.0000000000
      5756        42  DOPC      C35            20.0936743189      -23.1364392011       14.0723524321  MEMB      42              0.0000000000
      5757        42  DOPC      H5X            20.1623925179      -23.9946816268       14.7800849837  MEMB      42              0.0000000000
      5758        42  DOPC      H5Y            21.0635263923      -22.5985577446       14.1133829803  MEMB      42              0.0000000000
      5759        42  DOPC      C36            19.8913711766      -23.6776953028       12.6640825131  MEMB      42              0.0000000000
      5760        42  DOPC      H6X            20.7988002719      -24.2339361148       12.3426943353  MEMB      42              0.0000000000
      5761        42  DOPC      H6Y            19.0489373998      -24.4065196103       12.6836042178  MEMB      42              0.0000000000
      5762        42  DOPC      C37            19.5796964424      -22.5498200113       11.6751531329  MEMB      42              0.0000000000
      5763        42  DOPC      H7X            18.5835940298      -22.1087321080       11.9040885823  MEMB      42              0.0000000000
      5764        42  DOPC      H7Y            20.3153397290      -21.7341148234       11.8006436287  MEMB      42              0.0000000000
      5765        42  DOPC      C38            19.6042985644      -23.0196909171       10.2300534131  MEMB      42              0.0000000000
      5766        42  DOPC      H8X            20.6057542599      -23.4480959204       10.0295666171  MEMB      42              0.0000000000
      5767        42  DOPC      H8Y            19.5120685410      -22.1437270040        9.5581701753  MEMB      42              0.0000000000
      5768        42  DOPC      C39            18.4507064847      -23.9823343282       10.0994944162  MEMB      42              0.0000000000
      5769        42  DOPC      H9X            17.5138353912      -23.6268721617       10.5494728627  MEMB      42              0.0000000000
      5770        42  DOPC      C310           18.5108593366      -25.2201599755        9.6026177375  MEMB      42              0.0000000000
      5771        42  DOPC      H10X           17.6236977225      -25.8727965555        9.6489128584  MEMB      42              0.0000000000
      5772        42  DOPC      C311           19.7791045441      -25.8332935795        9.0852633452  MEMB      42              0.0000000000
      5773        42  DOPC      H11X           20.1006649278      -26.6430857767        9.7735755417  MEMB      42              0.0000000000
      5774        42  DOPC      H11Y           20.6219319075      -25.1104642419        9.0237980692  MEMB      42              0.0000000000
      5775        42  DOPC      C312           19.6551694859      -26.3932751631        7.6709427724  MEMB      42              0.0000000000
      5776        42  DOPC      H12X           18.8390319685      -27.1455027826        7.6025747734  MEMB      42              0.0000000000
      5777        42  DOPC      H12Y           20.6271616456      -26.9024534971        7.4966028009  MEMB      42              0.0000000000
      5778        42  DOPC      C313           19.5013267150      -25.3241069444        6.5821622493  MEMB      42              0.0000000000
      5779        42  DOPC      H13X           18.6510052256      -25.5932990074        5.9186238485  MEMB      42              0.0000000000
      5780        42  DOPC      H13Y           19.2444280891      -24.3673145308        7.0838827953  MEMB      42              0.0000000000
      5781        42  DOPC      C314           20.7874145815      -25.1308497163        5.7536070529  MEMB      42              0.0000000000
      5782        42  DOPC      H14X           21.4520562763      -24.4728947691        6.3557677870  MEMB      42              0.0000000000
      5783        42  DOPC      H14Y           21.3140907686      -26.0976004687        5.6209896154  MEMB      42              0.0000000000
      5784        42  DOPC      C315           20.5735839854      -24.5091615548        4.3651186707  MEMB      42              0.0000000000
      5785        42  DOPC      H15X           21.5403324452      -24.1576821878        3.9437858819  MEMB      42              0.0000000000
      5786        42  DOPC      H15Y           19.9370355921      -23.6190073686        4.4865006768  MEMB      42              0.0000000000
      5787        42  DOPC      C316           19.8543890750      -25.3900141951        3.3380987477  MEMB      42              0.0000000000
      5788        42  DOPC      H16X           20.5020242980      -26.2055801843        2.9836600360  MEMB      42              0.0000000000
      5789        42  DOPC      H16Y           18.9685209250      -25.8669229786        3.8143631382  MEMB      42              0.0000000000
      5790        42  DOPC      C317           19.3724620010      -24.5562188505        2.1446615509  MEMB      42              0.0000000000
      5791        42  DOPC      H17X           18.5945160559      -25.1429060386        1.6057054160  MEMB      42              0.0000000000
      5792        42  DOPC      H17Y           18.8900819443      -23.6408069248        2.5468295104  MEMB      42              0.0000000000
      5793        42  DOPC      C318           20.4585279267      -24.1087260580        1.1692277749  MEMB      42              0.0000000000
      5794        42  DOPC      H18X           20.6386022057      -24.9044416095        0.4286687892  MEMB      42              0.0000000000
      5795        42  DOPC      H18Y           20.1576009500      -23.1781815942        0.6360360566  MEMB      42              0.0000000000
      5796        42  DOPC      H18Z           21.4194380509      -23.9399181304        1.6935787690  MEMB      42              0.0000000000
      5797        43  DOPC      N              17.7654206327       24.4657922587       19.0126192300  MEMB      43              0.0000000000
      5798        43  DOPC      C12            19.1159607360       24.4949509106       18.3198670669  MEMB      43              0.0000000000
      5799        43  DOPC      H12A           18.9548694079       24.1255337488       17.3146026287  MEMB      43              0.0000000000
      5800        43  DOPC      H12B           19.7705514785       23.8139189173       18.8402007118  MEMB      43              0.0000000000
      5801        43  DOPC      C13            17.0521173063       23.1582144252       18.9061718687  MEMB      43              0.0000000000
      5802        43  DOPC      H13A           16.1680742034       23.1625662752       19.5321829214  MEMB      43              0.0000000000
      5803        43  DOPC      H13B           16.7426070288       22.9306408933       17.8940850104  MEMB      43              0.0000000000
      5804        43  DOPC      H13C           17.6597677041       22.3350202352       19.2655821123  MEMB      43              0.0000000000
      5805        43  DOPC      C14            16.9119923068       25.4909487075       18.3531305377  MEMB      43              0.0000000000
      5806        43  DOPC      H14A           17.4074853859       26.4552019110       18.3990538893  MEMB      43              0.0000000000
      5807        43  DOPC      H14B           16.7348431238       25.2549263307       17.3081549699  MEMB      43              0.0000000000
      5808        43  DOPC      H14C           15.9636732944       25.5876696681       18.8581990442  MEMB      43              0.0000000000
      5809        43  DOPC      C15            17.9024467469       24.7508065596       20.4731464636  MEMB      43              0.0000000000
      5810        43  DOPC      H15A           18.3120121438       23.9062722422       21.0134565391  MEMB      43              0.0000000000
      5811        43  DOPC      H15B           16.9330731343       24.9955842788       20.8974076060  MEMB      43              0.0000000000
      5812        43  DOPC      H15C           18.5242065427       25.6273565090       20.6269796503  MEMB      43              0.0000000000
      5813        43  DOPC      C11            19.8539706818       25.8699514998       18.1200846309  MEMB      43              0.0000000000
      5814        43  DOPC      H11A           20.8551543828       25.6288814833       17.6891335025  MEMB      43              0.0000000000
      5815        43  DOPC      H11B           19.3262565468       26.4362015118       17.3152522838  MEMB      43              0.0000000000
      5816        43  DOPC      P              19.3026021529       28.0238828578       19.6541627367  MEMB      43              0.0000000000
      5817        43  DOPC      O13            20.1883306650       29.2013253427       19.5727636977  MEMB      43              0.0000000000
      5818        43  DOPC      O14            18.5730861230       27.7549191581       20.9244021361  MEMB      43              0.0000000000
      5819        43  DOPC      O12            20.0451227384       26.6404310635       19.3158304154  MEMB      43              0.0000000000
      5820        43  DOPC      O11            18.2181782132       28.0985357558       18.5021824196  MEMB      43              0.0000000000
      5821        43  DOPC      C1             17.1582734735       29.0611409199       18.5610321919  MEMB      43              0.0000000000
      5822        43  DOPC      HA             17.4942154167       29.9940052768       19.0806027882  MEMB      43              0.0000000000
      5823        43  DOPC      HB             16.3183260435       28.6236482832       19.1398195061  MEMB      43              0.0000000000
      5824        43  DOPC      C2             16.6038547920       29.5398836347       17.1624881568  MEMB      43              0.0000000000
      5825        43  DOPC      HS             15.7454234813       30.2137573517       17.3862738555  MEMB      43              0.0000000000
      5826        43  DOPC      O21            16.1680542915       28.4346112776       16.3446102844  MEMB      43              0.0000000000
      5827        43  DOPC      C21            15.5707483827       28.7604320972       15.1928187551  MEMB      43              0.0000000000
      5828        43  DOPC      O22            15.1258138010       29.8541843094       14.9127934380  MEMB      43              0.0000000000
      5829        43  DOPC      C22            15.4478243976       27.4752299529       14.3771687205  MEMB      43              0.0000000000
      5830        43  DOPC      H2R            14.6119655126       26.8947151386       14.8185502418  MEMB      43              0.0000000000
      5831        43  DOPC      H2S            16.3743614522       26.8764042818       14.5121648391  MEMB      43              0.0000000000
      5832        43  DOPC      C3             17.6660954237       30.3751783315       16.3941630349  MEMB      43              0.0000000000
      5833        43  DOPC      HX             18.1266315408       31.0237027766       17.1573001762  MEMB      43              0.0000000000
      5834        43  DOPC      HY             17.1892348873       31.0367544582       15.6329196633  MEMB      43              0.0000000000
      5835        43  DOPC      O31            18.7028532479       29.5429769859       15.8692507697  MEMB      43              0.0000000000
      5836        43  DOPC      C31            18.9271349868       29.5323333723       14.5833198165  MEMB      43              0.0000000000
      5837        43  DOPC      O32            18.3217901451       30.1261187522       13.7103428869  MEMB      43              0.0000000000
      5838        43  DOPC      C32            20.0737706386       28.5659510388       14.3810812185  MEMB      43              0.0000000000
      5839        43  DOPC      H2X            21.0119502120       29.1024425080       14.5989100526  MEMB      43              0.0000000000
      5840        43  DOPC      H2Y            19.9347945809       27.7872461557       15.1587508500  MEMB      43              0.0000000000
      5841        43  DOPC      C23            15.1821294414       27.6554902273       12.8677755506  MEMB      43              0.0000000000
      5842        43  DOPC      H3R            16.1251516549       27.9757530641       12.3671663839  MEMB      43              0.0000000000
      5843        43  DOPC      H3S            14.4111780511       28.4331978977       12.6744528946  MEMB      43              0.0000000000
      5844        43  DOPC      C24            14.6974032982       26.3293162659       12.2623971079  MEMB      43              0.0000000000
      5845        43  DOPC      H4R            13.6019639441       26.2182417738       12.4164721961  MEMB      43              0.0000000000
      5846        43  DOPC      H4S            15.1885986446       25.4881029901       12.8109347500  MEMB      43              0.0000000000
      5847        43  DOPC      C25            15.0751150265       26.1437817565       10.7896687494  MEMB      43              0.0000000000
      5848        43  DOPC      H5R            14.7958612656       25.1151339395       10.4682934177  MEMB      43              0.0000000000
      5849        43  DOPC      H5S            16.1841741614       26.1995660028       10.7112440062  MEMB      43              0.0000000000
      5850        43  DOPC      C26            14.4985786859       27.1640914335        9.8028066770  MEMB      43              0.0000000000
      5851        43  DOPC      H6R            14.7762545957       28.1972911867       10.1086266456  MEMB      43              0.0000000000
      5852        43  DOPC      H6S            13.3888865509       27.1127585105        9.7739636840  MEMB      43              0.0000000000
      5853        43  DOPC      C27            15.1055005124       26.8615843966        8.4281885065  MEMB      43              0.0000000000
      5854        43  DOPC      H7R            14.9400333069       25.7963444095        8.1514016918  MEMB      43              0.0000000000
      5855        43  DOPC      H7S            16.1904721588       27.0105045747        8.5734349601  MEMB      43              0.0000000000
      5856        43  DOPC      C28            14.6169144279       27.7715638119        7.3075136328  MEMB      43              0.0000000000
      5857        43  DOPC      H8R            14.6996133080       28.8211595906        7.6691553284  MEMB      43              0.0000000000
      5858        43  DOPC      H8S            13.5414739750       27.5595571779        7.1478809635  MEMB      43              0.0000000000
      5859        43  DOPC      C29            15.3529584245       27.5828005655        6.0089893122  MEMB      43              0.0000000000
      5860        43  DOPC      H9R            15.1900825440       26.6301377096        5.4796234997  MEMB      43              0.0000000000
      5861        43  DOPC      C210           16.1429888487       28.5010603061        5.4388511446  MEMB      43              0.0000000000
      5862        43  DOPC      H10R           16.6482563050       28.2259056108        4.5019180669  MEMB      43              0.0000000000
      5863        43  DOPC      C211           16.4717295260       29.8828698859        5.9506246894  MEMB      43              0.0000000000
      5864        43  DOPC      H11R           17.5395701096       29.9821861265        5.7443766780  MEMB      43              0.0000000000
      5865        43  DOPC      H11S           16.4153242875       29.9160574986        7.0625473826  MEMB      43              0.0000000000
      5866        43  DOPC      C212           15.8025061345       31.1940663776        5.4300550884  MEMB      43              0.0000000000
      5867        43  DOPC      H12R           16.4119039621       32.0294245921        5.8529681008  MEMB      43              0.0000000000
      5868        43  DOPC      H12S           14.7920436822       31.3159961565        5.8735468870  MEMB      43              0.0000000000
      5869        43  DOPC      C213           15.7126304348       31.4604372769        3.9034912315  MEMB      43              0.0000000000
      5870        43  DOPC      H13R           15.9194754864       32.5388979197        3.7820919822  MEMB      43              0.0000000000
      5871        43  DOPC      H13S           14.6787642346       31.2799400673        3.5427446598  MEMB      43              0.0000000000
      5872        43  DOPC      C214           16.7076659045       30.6817660751        3.0389506518  MEMB      43              0.0000000000
      5873        43  DOPC      H14R           16.4597012186       29.6087662146        3.1494021996  MEMB      43              0.0000000000
      5874        43  DOPC      H14S           17.7285069172       30.8773696016        3.4319320767  MEMB      43              0.0000000000
      5875        43  DOPC      C215           16.7157973359       30.8739180575        1.5124178970  MEMB      43              0.0000000000
      5876        43  DOPC      H15R           17.2041540445       31.8376204658        1.2523056510  MEMB      43              0.0000000000
      5877        43  DOPC      H15S           15.6732840784       30.9031994572        1.1245637038  MEMB      43              0.0000000000
      5878        43  DOPC      C216           17.4744916110       29.7007903160        0.8404041784  MEMB      43              0.0000000000
      5879        43  DOPC      H16R           17.7996490255       29.9953394335       -0.1784839178  MEMB      43              0.0000000000
      5880        43  DOPC      H16S           16.7797741814       28.8341465708        0.7447706378  MEMB      43              0.0000000000
      5881        43  DOPC      C217           18.7136197570       29.2420422910        1.6344815201  MEMB      43              0.0000000000
      5882        43  DOPC      H17R           18.3920956081       28.8869958163        2.6358177739  MEMB      43              0.0000000000
      5883        43  DOPC      H17S           19.3642678074       30.1280614199        1.7945425336  MEMB      43              0.0000000000
      5884        43  DOPC      C218           19.5186172165       28.0902540177        1.0306670995  MEMB      43              0.0000000000
      5885        43  DOPC      H18R           20.3650432629       27.8018317212        1.6838394471  MEMB      43              0.0000000000
      5886        43  DOPC      H18S           19.9173422024       28.3440818289        0.0279085475  MEMB      43              0.0000000000
      5887        43  DOPC      H18T           18.8942031364       27.1852911796        0.9716633799  MEMB      43              0.0000000000
      5888        43  DOPC      C33            20.1631694708       27.9272221576       12.9882557848  MEMB      43              0.0000000000
      5889        43  DOPC      H3X            20.5050902056       28.6827499254       12.2439187262  MEMB      43              0.0000000000
      5890        43  DOPC      H3Y            19.1615457684       27.5721026917       12.6591800809  MEMB      43              0.0000000000
      5891        43  DOPC      C34            21.1670865875       26.7655705565       13.0289212776  MEMB      43              0.0000000000
      5892        43  DOPC      H4X            22.1629762671       27.2207801952       13.2212352259  MEMB      43              0.0000000000
      5893        43  DOPC      H4Y            21.2393279052       26.2811045837       12.0412704542  MEMB      43              0.0000000000
      5894        43  DOPC      C35            20.9035390309       25.6903157679       14.1055801751  MEMB      43              0.0000000000
      5895        43  DOPC      H5X            21.1255566165       26.1495087095       15.0952585957  MEMB      43              0.0000000000
      5896        43  DOPC      H5Y            21.6342984150       24.8644539165       13.9733795744  MEMB      43              0.0000000000
      5897        43  DOPC      C36            19.4686663954       25.1241643530       14.1826692976  MEMB      43              0.0000000000
      5898        43  DOPC      H6X            19.3863386664       24.5698133482       15.1456043400  MEMB      43              0.0000000000
      5899        43  DOPC      H6Y            18.7151804662       25.9408400063       14.2094977295  MEMB      43              0.0000000000
      5900        43  DOPC      C37            19.1258765855       24.1254635638       13.0729305264  MEMB      43              0.0000000000
      5901        43  DOPC      H7X            20.0290648953       23.4992055200       12.8898862665  MEMB      43              0.0000000000
      5902        43  DOPC      H7Y            18.2975205130       23.4578064417       13.4070130272  MEMB      43              0.0000000000
      5903        43  DOPC      C38            18.6577213691       24.7932262160       11.7770111060  MEMB      43              0.0000000000
      5904        43  DOPC      H8X            19.2341920111       25.7246809261       11.6380377174  MEMB      43              0.0000000000
      5905        43  DOPC      H8Y            17.5959580799       25.1005870847       11.8865199965  MEMB      43              0.0000000000
      5906        43  DOPC      C39            18.8406448360       23.8708420073       10.6009351630  MEMB      43              0.0000000000
      5907        43  DOPC      H9X            18.2400742884       22.9497924163       10.6376186066  MEMB      43              0.0000000000
      5908        43  DOPC      C310           19.6151010103       24.1250851926        9.5310205436  MEMB      43              0.0000000000
      5909        43  DOPC      H10X           19.6440876386       23.4099089769        8.6975255240  MEMB      43              0.0000000000
      5910        43  DOPC      C311           20.4251714998       25.3767019170        9.3209634284  MEMB      43              0.0000000000
      5911        43  DOPC      H11X           21.1737644154       25.2371626658        8.5137514255  MEMB      43              0.0000000000
      5912        43  DOPC      H11Y           21.0178662674       25.6347484485       10.2191539801  MEMB      43              0.0000000000
      5913        43  DOPC      C312           19.4918152291       26.5542035694        9.0022600530  MEMB      43              0.0000000000
      5914        43  DOPC      H12X           20.1108059982       27.4508158376        8.7953837403  MEMB      43              0.0000000000
      5915        43  DOPC      H12Y           18.8805679313       26.8201676239        9.8938201685  MEMB      43              0.0000000000
      5916        43  DOPC      C313           18.5046042110       26.2843603981        7.8524297110  MEMB      43              0.0000000000
      5917        43  DOPC      H13X           17.7700806107       25.5039576849        8.1580395885  MEMB      43              0.0000000000
      5918        43  DOPC      H13Y           17.9309398228       27.2221979846        7.6879206907  MEMB      43              0.0000000000
      5919        43  DOPC      C314           19.1241124869       25.8973357062        6.5074431715  MEMB      43              0.0000000000
      5920        43  DOPC      H14X           19.4230170012       24.8251157198        6.5326626193  MEMB      43              0.0000000000
      5921        43  DOPC      H14Y           18.3300321394       26.0057453337        5.7334249576  MEMB      43              0.0000000000
      5922        43  DOPC      C315           20.3454099646       26.7401058861        6.1153970464  MEMB      43              0.0000000000
      5923        43  DOPC      H15X           20.5607253138       26.5617267711        5.0376710139  MEMB      43              0.0000000000
      5924        43  DOPC      H15Y           21.2268425208       26.3693612491        6.6848942919  MEMB      43              0.0000000000
      5925        43  DOPC      C316           20.2094673609       28.2517151960        6.3632217243  MEMB      43              0.0000000000
      5926        43  DOPC      H16X           19.4023931816       28.5197800024        7.0740387504  MEMB      43              0.0000000000
      5927        43  DOPC      H16Y           21.1633707295       28.6247019798        6.8096067454  MEMB      43              0.0000000000
      5928        43  DOPC      C317           19.9593903624       28.9936832815        5.0608272634  MEMB      43              0.0000000000
      5929        43  DOPC      H17X           20.7924415240       28.6607488782        4.4168797414  MEMB      43              0.0000000000
      5930        43  DOPC      H17Y           19.0055772003       28.6527566357        4.6074783028  MEMB      43              0.0000000000
      5931        43  DOPC      C318           20.0194906013       30.5069824205        5.2198951371  MEMB      43              0.0000000000
      5932        43  DOPC      H18X           20.5390906060       30.7169015222        6.1722621336  MEMB      43              0.0000000000
      5933        43  DOPC      H18Y           20.5883994785       30.9833580920        4.4110782415  MEMB      43              0.0000000000
      5934        43  DOPC      H18Z           19.0377059189       31.0158501978        5.2360881197  MEMB      43              0.0000000000
      5935        44  DOPC      N             -29.7509233887       13.8065579122       18.8283751518  MEMB      44              0.0000000000
      5936        44  DOPC      C12           -29.6059569283       15.3250740709       18.9470390847  MEMB      44              0.0000000000
      5937        44  DOPC      H12A          -29.0196082627       15.5645305297       19.8388753082  MEMB      44              0.0000000000
      5938        44  DOPC      H12B          -30.5846894450       15.7929246267       19.0310976444  MEMB      44              0.0000000000
      5939        44  DOPC      C13           -30.7164869069       13.2147489215       19.8083529147  MEMB      44              0.0000000000
      5940        44  DOPC      H13A          -30.4311796475       13.3306464210       20.8468359370  MEMB      44              0.0000000000
      5941        44  DOPC      H13B          -31.7285717981       13.5957556038       19.6884454374  MEMB      44              0.0000000000
      5942        44  DOPC      H13C          -30.7846965969       12.1429580203       19.6692964438  MEMB      44              0.0000000000
      5943        44  DOPC      C14           -28.3901357609       13.2011702782       19.0194937522  MEMB      44              0.0000000000
      5944        44  DOPC      H14A          -28.4048748648       12.1292523489       19.1018039546  MEMB      44              0.0000000000
      5945        44  DOPC      H14B          -27.7428768748       13.5489438565       18.2102607828  MEMB      44              0.0000000000
      5946        44  DOPC      H14C          -27.9019682596       13.5909230916       19.9167011860  MEMB      44              0.0000000000
      5947        44  DOPC      C15           -30.2751814276       13.4751072410       17.4572613332  MEMB      44              0.0000000000
      5948        44  DOPC      H15A          -31.2602607046       13.9142619804       17.3085444336  MEMB      44              0.0000000000
      5949        44  DOPC      H15B          -30.3827943378       12.4076372520       17.3126012098  MEMB      44              0.0000000000
      5950        44  DOPC      H15C          -29.6045344102       13.8956110515       16.7159717688  MEMB      44              0.0000000000
      5951        44  DOPC      C11           -28.8251624507       16.0622550130       17.8249587347  MEMB      44              0.0000000000
      5952        44  DOPC      H11A          -29.2881296291       15.8486996932       16.8390462797  MEMB      44              0.0000000000
      5953        44  DOPC      H11B          -28.9258536483       17.1635037288       17.9783145176  MEMB      44              0.0000000000
      5954        44  DOPC      P             -26.4215684753       16.2190455678       18.8706057993  MEMB      44              0.0000000000
      5955        44  DOPC      O13           -26.9508034279       15.7744471042       20.1836226536  MEMB      44              0.0000000000
      5956        44  DOPC      O14           -26.1787679979       17.6659842926       18.6813343054  MEMB      44              0.0000000000
      5957        44  DOPC      O12           -27.4537170037       15.6754363785       17.7859410108  MEMB      44              0.0000000000
      5958        44  DOPC      O11           -25.0748077785       15.4387771090       18.6115332638  MEMB      44              0.0000000000
      5959        44  DOPC      C1            -24.9725382575       14.3463228524       17.7136427612  MEMB      44              0.0000000000
      5960        44  DOPC      HA            -25.7856300702       13.6008139130       17.8452323875  MEMB      44              0.0000000000
      5961        44  DOPC      HB            -24.0180709829       13.8218531355       17.9353401580  MEMB      44              0.0000000000
      5962        44  DOPC      C2            -24.9129759222       14.8089202178       16.2363646623  MEMB      44              0.0000000000
      5963        44  DOPC      HS            -24.4130015250       15.8118118225       16.2142931986  MEMB      44              0.0000000000
      5964        44  DOPC      O21           -26.2495256642       14.8222348467       15.6990664782  MEMB      44              0.0000000000
      5965        44  DOPC      C21           -26.4028605810       15.6667006963       14.7008948022  MEMB      44              0.0000000000
      5966        44  DOPC      O22           -25.5131015453       16.3293345288       14.1976359090  MEMB      44              0.0000000000
      5967        44  DOPC      C22           -27.8887352580       15.6746841966       14.3022433510  MEMB      44              0.0000000000
      5968        44  DOPC      H2R           -28.3884598197       16.5021989499       14.8430861298  MEMB      44              0.0000000000
      5969        44  DOPC      H2S           -28.3355407700       14.7323941283       14.6677672992  MEMB      44              0.0000000000
      5970        44  DOPC      C3            -24.0895049336       13.7895616896       15.4438546173  MEMB      44              0.0000000000
      5971        44  DOPC      HX            -23.0717462473       13.7336537305       15.8923920745  MEMB      44              0.0000000000
      5972        44  DOPC      HY            -23.9751390568       14.1250318704       14.3860151637  MEMB      44              0.0000000000
      5973        44  DOPC      O31           -24.7513304111       12.5192663757       15.6108278013  MEMB      44              0.0000000000
      5974        44  DOPC      C31           -25.4780809707       12.1020318392       14.5825575655  MEMB      44              0.0000000000
      5975        44  DOPC      O32           -25.3761069734       12.4661265523       13.4292310248  MEMB      44              0.0000000000
      5976        44  DOPC      C32           -26.4435823230       11.0430166160       15.1058256019  MEMB      44              0.0000000000
      5977        44  DOPC      H2X           -25.8224690129       10.2019440365       15.4835675003  MEMB      44              0.0000000000
      5978        44  DOPC      H2Y           -27.0044348160       11.4900759927       15.9518100550  MEMB      44              0.0000000000
      5979        44  DOPC      C23           -28.1336693195       15.7730053178       12.7805152092  MEMB      44              0.0000000000
      5980        44  DOPC      H3R           -29.2139463695       15.6196115227       12.5773255661  MEMB      44              0.0000000000
      5981        44  DOPC      H3S           -27.5831064810       14.9707009318       12.2412207903  MEMB      44              0.0000000000
      5982        44  DOPC      C24           -27.8047156203       17.1488088436       12.2028409246  MEMB      44              0.0000000000
      5983        44  DOPC      H4R           -26.7039707379       17.3036597849       12.2502896350  MEMB      44              0.0000000000
      5984        44  DOPC      H4S           -28.2931454645       17.9229338599       12.8373298008  MEMB      44              0.0000000000
      5985        44  DOPC      C25           -28.2895461566       17.3134409735       10.7567328381  MEMB      44              0.0000000000
      5986        44  DOPC      H5R           -28.4497472606       18.3919970620       10.5377606113  MEMB      44              0.0000000000
      5987        44  DOPC      H5S           -29.2658516338       16.7993857898       10.6388416468  MEMB      44              0.0000000000
      5988        44  DOPC      C26           -27.2862626351       16.7751572357        9.7304758060  MEMB      44              0.0000000000
      5989        44  DOPC      H6R           -27.8192397012       16.5655463366        8.7808680256  MEMB      44              0.0000000000
      5990        44  DOPC      H6S           -26.8645271976       15.8236686623       10.1064508395  MEMB      44              0.0000000000
      5991        44  DOPC      C27           -26.1811992363       17.8010357408        9.4449941083  MEMB      44              0.0000000000
      5992        44  DOPC      H7R           -25.9837602517       18.3464115264       10.3865154072  MEMB      44              0.0000000000
      5993        44  DOPC      H7S           -26.5708172618       18.5304243560        8.7100760629  MEMB      44              0.0000000000
      5994        44  DOPC      C28           -24.7931443536       17.2866886550        9.0406431216  MEMB      44              0.0000000000
      5995        44  DOPC      H8R           -24.3240106803       16.8974776024        9.9706627387  MEMB      44              0.0000000000
      5996        44  DOPC      H8S           -24.1778570371       18.1534245332        8.7109982839  MEMB      44              0.0000000000
      5997        44  DOPC      C29           -24.7702036611       16.2244206359        7.9980929430  MEMB      44              0.0000000000
      5998        44  DOPC      H9R           -24.7577715567       16.5646514100        6.9508616442  MEMB      44              0.0000000000
      5999        44  DOPC      C210          -24.7646055083       14.9168228729        8.2685258500  MEMB      44              0.0000000000
      6000        44  DOPC      H10R          -24.7754838021       14.2517914021        7.3963293556  MEMB      44              0.0000000000
      6001        44  DOPC      C211          -24.7849803536       14.2118896691        9.6215596075  MEMB      44              0.0000000000
      6002        44  DOPC      H11R          -24.7854758723       14.9098672682       10.4899574534  MEMB      44              0.0000000000
      6003        44  DOPC      H11S          -23.8547953692       13.6081175998        9.7189642634  MEMB      44              0.0000000000
      6004        44  DOPC      C212          -25.9759230419       13.2308906585        9.8053619586  MEMB      44              0.0000000000
      6005        44  DOPC      H12R          -26.8400309112       13.7331470051       10.2922583955  MEMB      44              0.0000000000
      6006        44  DOPC      H12S          -25.6616491524       12.4151629385       10.4979676825  MEMB      44              0.0000000000
      6007        44  DOPC      C213          -26.4369308811       12.6046005241        8.4840532572  MEMB      44              0.0000000000
      6008        44  DOPC      H13R          -26.8088501987       13.4119097195        7.8123288909  MEMB      44              0.0000000000
      6009        44  DOPC      H13S          -27.3066280510       11.9339044615        8.6553343052  MEMB      44              0.0000000000
      6010        44  DOPC      C214          -25.2799065844       11.8217248733        7.8452360145  MEMB      44              0.0000000000
      6011        44  DOPC      H14R          -25.1904368362       10.8766897970        8.4312141383  MEMB      44              0.0000000000
      6012        44  DOPC      H14S          -24.2958364796       12.3255584512        7.9342873329  MEMB      44              0.0000000000
      6013        44  DOPC      C215          -25.5163332513       11.4581250297        6.3840573900  MEMB      44              0.0000000000
      6014        44  DOPC      H15R          -26.6139396349       11.3427793530        6.2567380609  MEMB      44              0.0000000000
      6015        44  DOPC      H15S          -25.0169642854       10.4733500492        6.2803813075  MEMB      44              0.0000000000
      6016        44  DOPC      C216          -24.9071982158       12.3383159774        5.2718350486  MEMB      44              0.0000000000
      6017        44  DOPC      H16R          -24.3214707776       11.6780623251        4.5882322552  MEMB      44              0.0000000000
      6018        44  DOPC      H16S          -24.2023653397       13.0913114192        5.6793405928  MEMB      44              0.0000000000
      6019        44  DOPC      C217          -25.9756924825       12.9943226270        4.3938647605  MEMB      44              0.0000000000
      6020        44  DOPC      H17R          -25.5028022045       13.6776598300        3.6519960199  MEMB      44              0.0000000000
      6021        44  DOPC      H17S          -26.6081486637       13.6174321779        5.0598817465  MEMB      44              0.0000000000
      6022        44  DOPC      C218          -26.8400806967       11.9722472236        3.6421057172  MEMB      44              0.0000000000
      6023        44  DOPC      H18R          -27.2917570974       11.2307063394        4.3358033486  MEMB      44              0.0000000000
      6024        44  DOPC      H18S          -26.2224050761       11.4137591693        2.9041560787  MEMB      44              0.0000000000
      6025        44  DOPC      H18T          -27.6645847597       12.4882582292        3.1062194357  MEMB      44              0.0000000000
      6026        44  DOPC      C33           -27.4333194156       10.4901211484       14.0533621782  MEMB      44              0.0000000000
      6027        44  DOPC      H3X           -28.0590364705        9.7415079371       14.5933057997  MEMB      44              0.0000000000
      6028        44  DOPC      H3Y           -26.8894892747        9.9591837342       13.2395117809  MEMB      44              0.0000000000
      6029        44  DOPC      C34           -28.4190274547       11.4882224060       13.4224521160  MEMB      44              0.0000000000
      6030        44  DOPC      H4X           -28.9748757263       10.9441628777       12.6211979060  MEMB      44              0.0000000000
      6031        44  DOPC      H4Y           -27.8839233612       12.3242807955       12.9184054362  MEMB      44              0.0000000000
      6032        44  DOPC      C35           -29.4407080739       12.0080657076       14.4405642345  MEMB      44              0.0000000000
      6033        44  DOPC      H5X           -29.0069720925       12.8825959217       14.9576197024  MEMB      44              0.0000000000
      6034        44  DOPC      H5Y           -29.6025347924       11.2264586753       15.2136565491  MEMB      44              0.0000000000
      6035        44  DOPC      C36           -30.8181017459       12.3464467481       13.8473773891  MEMB      44              0.0000000000
      6036        44  DOPC      H6X           -31.2048909613       11.4943924199       13.2465384944  MEMB      44              0.0000000000
      6037        44  DOPC      H6Y           -31.5300817648       12.5100468549       14.6897967980  MEMB      44              0.0000000000
      6038        44  DOPC      C37           -30.8034221314       13.6086846947       12.9900059209  MEMB      44              0.0000000000
      6039        44  DOPC      H7X           -30.5427188020       14.4401032447       13.6885999101  MEMB      44              0.0000000000
      6040        44  DOPC      H7Y           -30.0016951327       13.5290516921       12.2188942097  MEMB      44              0.0000000000
      6041        44  DOPC      C38           -32.1319532002       13.9089925684       12.2770105129  MEMB      44              0.0000000000
      6042        44  DOPC      H8X           -32.9811140395       13.7961600973       12.9887090926  MEMB      44              0.0000000000
      6043        44  DOPC      H8Y           -32.2969002829       13.1843947620       11.4494209930  MEMB      44              0.0000000000
      6044        44  DOPC      C39           -32.0362082919       15.3329033814       11.8043455788  MEMB      44              0.0000000000
      6045        44  DOPC      H9X           -32.0692491718       16.0597049275       12.6308963806  MEMB      44              0.0000000000
      6046        44  DOPC      C310          -31.9329895608       15.8037664795       10.5500965125  MEMB      44              0.0000000000
      6047        44  DOPC      H10X          -31.8104708513       16.8890910996       10.4318591043  MEMB      44              0.0000000000
      6048        44  DOPC      C311          -31.8869120035       15.0638310298        9.2400304772  MEMB      44              0.0000000000
      6049        44  DOPC      H11X          -32.8281468963       15.2807053603        8.6844055796  MEMB      44              0.0000000000
      6050        44  DOPC      H11Y          -31.8324422276       13.9621021637        9.3724427148  MEMB      44              0.0000000000
      6051        44  DOPC      C312          -30.7128203992       15.5471213239        8.3641690413  MEMB      44              0.0000000000
      6052        44  DOPC      H12X          -29.7481021155       15.1946959309        8.7917300353  MEMB      44              0.0000000000
      6053        44  DOPC      H12Y          -30.6928592243       16.6621306089        8.3588739672  MEMB      44              0.0000000000
      6054        44  DOPC      C313          -30.8455348799       15.0922352652        6.9033292416  MEMB      44              0.0000000000
      6055        44  DOPC      H13X          -30.6618058024       13.9989837028        6.8243328050  MEMB      44              0.0000000000
      6056        44  DOPC      H13Y          -31.8996690924       15.2803343181        6.5907529174  MEMB      44              0.0000000000
      6057        44  DOPC      C314          -29.9430477712       15.8593592421        5.9195738403  MEMB      44              0.0000000000
      6058        44  DOPC      H14X          -30.3280882320       15.6493637700        4.8948561372  MEMB      44              0.0000000000
      6059        44  DOPC      H14Y          -30.0375371794       16.9525922629        6.0940173762  MEMB      44              0.0000000000
      6060        44  DOPC      C315          -28.4612296801       15.4597038129        5.9657419276  MEMB      44              0.0000000000
      6061        44  DOPC      H15X          -28.4023288877       14.3621596754        5.7933319282  MEMB      44              0.0000000000
      6062        44  DOPC      H15Y          -28.0360844848       15.6473721104        6.9714689762  MEMB      44              0.0000000000
      6063        44  DOPC      C316          -27.5982877330       16.1817192877        4.9124936765  MEMB      44              0.0000000000
      6064        44  DOPC      H16X          -27.6248000975       17.2806779014        5.0795248261  MEMB      44              0.0000000000
      6065        44  DOPC      H16Y          -26.5406098284       15.8544066827        5.0335665032  MEMB      44              0.0000000000
      6066        44  DOPC      C317          -28.0518834406       15.8614755983        3.4846485166  MEMB      44              0.0000000000
      6067        44  DOPC      H17X          -28.3029624648       14.7757766524        3.4387208065  MEMB      44              0.0000000000
      6068        44  DOPC      H17Y          -28.9874467052       16.4231892465        3.2653614572  MEMB      44              0.0000000000
      6069        44  DOPC      C318          -27.0205275884       16.1592536589        2.3969584544  MEMB      44              0.0000000000
      6070        44  DOPC      H18X          -27.4176314693       15.7975614724        1.4241386482  MEMB      44              0.0000000000
      6071        44  DOPC      H18Y          -26.8253690023       17.2468708345        2.3045397914  MEMB      44              0.0000000000
      6072        44  DOPC      H18Z          -26.0622193439       15.6339260078        2.6006076663  MEMB      44              0.0000000000
      6073        45  DOPC      N              23.6758865107       21.7588233618       20.3107541262  MEMB      45              0.0000000000
      6074        45  DOPC      C12            25.1710040614       21.4940553272       20.2328863916  MEMB      45              0.0000000000
      6075        45  DOPC      H12A           25.5193391944       21.1171997401       21.1896782364  MEMB      45              0.0000000000
      6076        45  DOPC      H12B           25.6746912673       22.4433821475       20.0866236216  MEMB      45              0.0000000000
      6077        45  DOPC      C13            23.1825330475       22.3890196999       19.0417384829  MEMB      45              0.0000000000
      6078        45  DOPC      H13A           23.3956430092       21.7257518980       18.2013008810  MEMB      45              0.0000000000
      6079        45  DOPC      H13B           22.1105750935       22.5460411886       19.0912888047  MEMB      45              0.0000000000
      6080        45  DOPC      H13C           23.6784728393       23.3387984129       18.8616191626  MEMB      45              0.0000000000
      6081        45  DOPC      C14            23.3582121513       22.6031476731       21.4906064187  MEMB      45              0.0000000000
      6082        45  DOPC      H14A           23.8197179463       23.5733988818       21.4007626082  MEMB      45              0.0000000000
      6083        45  DOPC      H14B           22.2865536278       22.7308892609       21.6039370023  MEMB      45              0.0000000000
      6084        45  DOPC      H14C           23.7045665629       22.1167372115       22.4011307066  MEMB      45              0.0000000000
      6085        45  DOPC      C15            22.9307529218       20.4744520246       20.5224876280  MEMB      45              0.0000000000
      6086        45  DOPC      H15A           23.2789245462       19.9760142212       21.4173254431  MEMB      45              0.0000000000
      6087        45  DOPC      H15B           23.1486772825       19.7869513058       19.7025007045  MEMB      45              0.0000000000
      6088        45  DOPC      H15C           21.8650415795       20.6239384453       20.6132543287  MEMB      45              0.0000000000
      6089        45  DOPC      C11            25.6798959754       20.5060112616       19.1453785700  MEMB      45              0.0000000000
      6090        45  DOPC      H11A           25.4248500623       20.9532540928       18.1614130903  MEMB      45              0.0000000000
      6091        45  DOPC      H11B           26.7901355263       20.4496090285       19.1826238125  MEMB      45              0.0000000000
      6092        45  DOPC      P              25.3164874125       18.0434088733       18.2213126807  MEMB      45              0.0000000000
      6093        45  DOPC      O13            24.1122052960       17.1870704195       18.2312077616  MEMB      45              0.0000000000
      6094        45  DOPC      O14            26.5920306937       17.3812673418       18.5405509805  MEMB      45              0.0000000000
      6095        45  DOPC      O12            25.1223395549       19.1998818302       19.3109290023  MEMB      45              0.0000000000
      6096        45  DOPC      O11            25.4856412065       18.8548995639       16.8655420917  MEMB      45              0.0000000000
      6097        45  DOPC      C1             24.4050028861       19.6117002348       16.3422642868  MEMB      45              0.0000000000
      6098        45  DOPC      HA             24.7905098766       20.5837796703       15.9606778196  MEMB      45              0.0000000000
      6099        45  DOPC      HB             23.6196298590       19.8414088480       17.1026304113  MEMB      45              0.0000000000
      6100        45  DOPC      C2             23.7603199224       18.8582479782       15.1806536634  MEMB      45              0.0000000000
      6101        45  DOPC      HS             23.6932612037       17.7790435041       15.4741645515  MEMB      45              0.0000000000
      6102        45  DOPC      O21            24.5793179967       19.0828372893       14.0155273767  MEMB      45              0.0000000000
      6103        45  DOPC      C21            24.4691831912       18.1246026596       13.1220920040  MEMB      45              0.0000000000
      6104        45  DOPC      O22            23.8092940287       17.1083800347       13.2450047678  MEMB      45              0.0000000000
      6105        45  DOPC      C22            25.3050032448       18.4903420230       11.8942721973  MEMB      45              0.0000000000
      6106        45  DOPC      H2R            26.3236838912       18.0953946505       12.0703663852  MEMB      45              0.0000000000
      6107        45  DOPC      H2S            25.3865777907       19.5898415506       11.7992596055  MEMB      45              0.0000000000
      6108        45  DOPC      C3             22.3395183061       19.4089126043       14.9498739448  MEMB      45              0.0000000000
      6109        45  DOPC      HX             21.7503491668       19.1445113541       15.8617350287  MEMB      45              0.0000000000
      6110        45  DOPC      HY             21.8833533357       18.8498986515       14.0980700751  MEMB      45              0.0000000000
      6111        45  DOPC      O31            22.4013652738       20.8603735974       14.7853439198  MEMB      45              0.0000000000
      6112        45  DOPC      C31            22.2103520237       21.2603808529       13.5326807134  MEMB      45              0.0000000000
      6113        45  DOPC      O32            21.5651643942       20.6725081815       12.6932473540  MEMB      45              0.0000000000
      6114        45  DOPC      C32            23.0184231687       22.4811151626       13.1951433836  MEMB      45              0.0000000000
      6115        45  DOPC      H2X            22.3367765975       23.1662933533       12.6441396868  MEMB      45              0.0000000000
      6116        45  DOPC      H2Y            23.4223740583       22.9856963304       14.0923492395  MEMB      45              0.0000000000
      6117        45  DOPC      C23            24.6719535074       17.8859093052       10.6246700647  MEMB      45              0.0000000000
      6118        45  DOPC      H3R            24.2880251600       16.8570841391       10.8241151950  MEMB      45              0.0000000000
      6119        45  DOPC      H3S            25.4260707988       17.8025361699        9.8115918841  MEMB      45              0.0000000000
      6120        45  DOPC      C24            23.5462535227       18.7552679266       10.0744889075  MEMB      45              0.0000000000
      6121        45  DOPC      H4R            24.0085694503       19.6167050098        9.5470075466  MEMB      45              0.0000000000
      6122        45  DOPC      H4S            22.9261610309       19.1575391802       10.9072548811  MEMB      45              0.0000000000
      6123        45  DOPC      C25            22.6160730181       17.9746613702        9.1403009116  MEMB      45              0.0000000000
      6124        45  DOPC      H5R            22.1626116140       17.1566303575        9.7348892212  MEMB      45              0.0000000000
      6125        45  DOPC      H5S            23.1937648070       17.5073693029        8.3134598489  MEMB      45              0.0000000000
      6126        45  DOPC      C26            21.5083520031       18.8623893980        8.5683615589  MEMB      45              0.0000000000
      6127        45  DOPC      H6R            21.1114156226       19.5049299730        9.3880407740  MEMB      45              0.0000000000
      6128        45  DOPC      H6S            20.6710797217       18.2378389830        8.1875891343  MEMB      45              0.0000000000
      6129        45  DOPC      C27            22.0516053656       19.7379001144        7.4349561620  MEMB      45              0.0000000000
      6130        45  DOPC      H7R            22.1861304227       19.1320305134        6.5093390218  MEMB      45              0.0000000000
      6131        45  DOPC      H7S            23.0638039778       20.0600164150        7.7282395772  MEMB      45              0.0000000000
      6132        45  DOPC      C28            21.2421930233       21.0099805717        7.1706603135  MEMB      45              0.0000000000
      6133        45  DOPC      H8R            21.8456468475       21.6474417070        6.4931842807  MEMB      45              0.0000000000
      6134        45  DOPC      H8S            21.0441415855       21.5738582880        8.1075438226  MEMB      45              0.0000000000
      6135        45  DOPC      C29            20.0056826286       20.5447795261        6.4912370717  MEMB      45              0.0000000000
      6136        45  DOPC      H9R            19.2139684679       20.1352005802        7.1379782527  MEMB      45              0.0000000000
      6137        45  DOPC      C210           19.8454316712       20.5679726015        5.1687070921  MEMB      45              0.0000000000
      6138        45  DOPC      H10R           19.1533921718       19.8086980973        4.8035589446  MEMB      45              0.0000000000
      6139        45  DOPC      C211           20.8018095475       21.0437608869        4.1083104758  MEMB      45              0.0000000000
      6140        45  DOPC      H11R           20.4349526297       20.7066106076        3.1114921222  MEMB      45              0.0000000000
      6141        45  DOPC      H11S           21.7686967115       20.5315081347        4.2830123791  MEMB      45              0.0000000000
      6142        45  DOPC      C212           21.0600016974       22.5639212908        3.9727806268  MEMB      45              0.0000000000
      6143        45  DOPC      H12R           21.4131340395       22.9898242286        4.9357057969  MEMB      45              0.0000000000
      6144        45  DOPC      H12S           20.1194210324       23.0971488820        3.7131537879  MEMB      45              0.0000000000
      6145        45  DOPC      C213           22.1017741170       22.8750470686        2.8833499071  MEMB      45              0.0000000000
      6146        45  DOPC      H13R           22.3268977101       23.9659510938        2.8884522119  MEMB      45              0.0000000000
      6147        45  DOPC      H13S           21.6776857843       22.6218827114        1.8879646317  MEMB      45              0.0000000000
      6148        45  DOPC      C214           23.4171688280       22.1040313360        3.0350850837  MEMB      45              0.0000000000
      6149        45  DOPC      H14R           23.2494236955       21.0150201530        2.9207483534  MEMB      45              0.0000000000
      6150        45  DOPC      H14S           23.8042423247       22.2646126654        4.0661941732  MEMB      45              0.0000000000
      6151        45  DOPC      C215           24.4462816533       22.5447779313        1.9883234046  MEMB      45              0.0000000000
      6152        45  DOPC      H15R           24.5273560274       23.6488229139        2.0338732637  MEMB      45              0.0000000000
      6153        45  DOPC      H15S           24.0848077138       22.3172962995        0.9690111655  MEMB      45              0.0000000000
      6154        45  DOPC      C216           25.8292627915       21.9265439315        2.2112031042  MEMB      45              0.0000000000
      6155        45  DOPC      H16R           26.5052106483       22.2156054413        1.3774784872  MEMB      45              0.0000000000
      6156        45  DOPC      H16S           25.7582899358       20.8134789766        2.1961464645  MEMB      45              0.0000000000
      6157        45  DOPC      C217           26.4253473785       22.3872758210        3.5494895658  MEMB      45              0.0000000000
      6158        45  DOPC      H17R           27.5029119403       22.1247829271        3.5922847790  MEMB      45              0.0000000000
      6159        45  DOPC      H17S           25.9267586768       21.7919282170        4.3341872353  MEMB      45              0.0000000000
      6160        45  DOPC      C218           26.1943188600       23.8654989727        3.9051650806  MEMB      45              0.0000000000
      6161        45  DOPC      H18R           26.8163328156       24.1749223600        4.7727452739  MEMB      45              0.0000000000
      6162        45  DOPC      H18S           25.1332173407       24.0667274193        4.1702554601  MEMB      45              0.0000000000
      6163        45  DOPC      H18T           26.4319918931       24.5034939221        3.0297615988  MEMB      45              0.0000000000
      6164        45  DOPC      C33            24.1086812400       21.9421300093       12.2607393712  MEMB      45              0.0000000000
      6165        45  DOPC      H3X            23.7623046954       21.0466751387       11.6898724002  MEMB      45              0.0000000000
      6166        45  DOPC      H3Y            24.9912961190       21.6152845542       12.8528990519  MEMB      45              0.0000000000
      6167        45  DOPC      C34            24.4930306809       22.8933967332       11.1551031459  MEMB      45              0.0000000000
      6168        45  DOPC      H4X            25.4335466440       22.4850335699       10.7139946005  MEMB      45              0.0000000000
      6169        45  DOPC      H4Y            24.6480996897       23.9302323695       11.5268165283  MEMB      45              0.0000000000
      6170        45  DOPC      C35            23.5913079896       22.8243278232        9.9422600373  MEMB      45              0.0000000000
      6171        45  DOPC      H5X            22.5345562249       23.0742320989       10.1663308046  MEMB      45              0.0000000000
      6172        45  DOPC      H5Y            23.6040403704       21.7672509966        9.6040575370  MEMB      45              0.0000000000
      6173        45  DOPC      C36            24.1896661677       23.7350338714        8.8754249180  MEMB      45              0.0000000000
      6174        45  DOPC      H6X            23.6691505248       24.7030945259        9.0189382250  MEMB      45              0.0000000000
      6175        45  DOPC      H6Y            25.2773397536       23.8988648373        9.0485477959  MEMB      45              0.0000000000
      6176        45  DOPC      C37            24.0159980093       23.1922014907        7.4604027466  MEMB      45              0.0000000000
      6177        45  DOPC      H7X            22.9237737825       23.0222517009        7.3825839341  MEMB      45              0.0000000000
      6178        45  DOPC      H7Y            24.2740036294       23.9604869070        6.7007911390  MEMB      45              0.0000000000
      6179        45  DOPC      C38            24.7796256850       21.8712907987        7.1727606927  MEMB      45              0.0000000000
      6180        45  DOPC      H8X            24.2657815400       21.3823797737        6.3143557760  MEMB      45              0.0000000000
      6181        45  DOPC      H8Y            24.6903056326       21.1897225291        8.0379107926  MEMB      45              0.0000000000
      6182        45  DOPC      C39            26.2372506152       22.0035658622        6.8466529506  MEMB      45              0.0000000000
      6183        45  DOPC      H9X            26.5418820988       23.0404837328        6.6481284060  MEMB      45              0.0000000000
      6184        45  DOPC      C310           27.1566355915       21.0226687145        6.7030047957  MEMB      45              0.0000000000
      6185        45  DOPC      H10X           28.1785846393       21.3387984135        6.4388215565  MEMB      45              0.0000000000
      6186        45  DOPC      C311           27.0120002913       19.5187270497        6.8229525362  MEMB      45              0.0000000000
      6187        45  DOPC      H11X           27.0527707828       19.2334593078        7.8991789573  MEMB      45              0.0000000000
      6188        45  DOPC      H11Y           27.9013675480       19.0429848816        6.3486863192  MEMB      45              0.0000000000
      6189        45  DOPC      C312           25.7815959744       18.7990044184        6.2185529731  MEMB      45              0.0000000000
      6190        45  DOPC      H12X           24.8479245942       19.1791656036        6.6807139705  MEMB      45              0.0000000000
      6191        45  DOPC      H12Y           25.8585793158       17.7178153064        6.4790868773  MEMB      45              0.0000000000
      6192        45  DOPC      C313           25.6545355189       18.8842933188        4.6911105144  MEMB      45              0.0000000000
      6193        45  DOPC      H13X           25.4003507403       19.9221303588        4.4058587125  MEMB      45              0.0000000000
      6194        45  DOPC      H13Y           26.6191211153       18.6160676266        4.2040787639  MEMB      45              0.0000000000
      6195        45  DOPC      C314           24.5420674876       17.9721415840        4.1589928871  MEMB      45              0.0000000000
      6196        45  DOPC      H14X           24.8601877451       16.9161948976        4.3085486713  MEMB      45              0.0000000000
      6197        45  DOPC      H14Y           23.6105430173       18.1365947771        4.7467978260  MEMB      45              0.0000000000
      6198        45  DOPC      C315           24.2405447499       18.2189075392        2.6769624196  MEMB      45              0.0000000000
      6199        45  DOPC      H15X           25.1793241715       18.5290338272        2.1636016887  MEMB      45              0.0000000000
      6200        45  DOPC      H15Y           23.5060625926       19.0433135657        2.5702982558  MEMB      45              0.0000000000
      6201        45  DOPC      C316           23.7064436029       16.9797699507        1.9623973807  MEMB      45              0.0000000000
      6202        45  DOPC      H16X           24.4727088884       16.1768285645        2.0657766330  MEMB      45              0.0000000000
      6203        45  DOPC      H16Y           22.7812562573       16.6056869666        2.4471991197  MEMB      45              0.0000000000
      6204        45  DOPC      C317           23.4633552536       17.2321050538        0.4723104202  MEMB      45              0.0000000000
      6205        45  DOPC      H17X           22.3899471744       17.4708385525        0.3043111099  MEMB      45              0.0000000000
      6206        45  DOPC      H17Y           24.0509500804       18.1236787444        0.1508021868  MEMB      45              0.0000000000
      6207        45  DOPC      C318           23.8970597677       16.0321690448       -0.3657403500  MEMB      45              0.0000000000
      6208        45  DOPC      H18X           23.4671690504       16.0600911568       -1.3868675696  MEMB      45              0.0000000000
      6209        45  DOPC      H18Y           25.0040497112       16.0264261174       -0.4541157401  MEMB      45              0.0000000000
      6210        45  DOPC      H18Z           23.5791662981       15.0890318587        0.1309731237  MEMB      45              0.0000000000
      6211        46  DOPC      N              28.3202562617      -20.7340071959       18.6496833223  MEMB      46              0.0000000000
      6212        46  DOPC      C12            27.2616929983      -20.3409427457       17.6238970026  MEMB      46              0.0000000000
      6213        46  DOPC      H12A           27.3273421089      -20.9573971375       16.7412565011  MEMB      46              0.0000000000
      6214        46  DOPC      H12B           27.4840766663      -19.3300985341       17.3114983413  MEMB      46              0.0000000000
      6215        46  DOPC      C13            29.6824580458      -20.6438575286       18.0204442977  MEMB      46              0.0000000000
      6216        46  DOPC      H13A           30.4840424226      -20.8339257562       18.7230766193  MEMB      46              0.0000000000
      6217        46  DOPC      H13B           29.7560655638      -21.3301007106       17.1871766278  MEMB      46              0.0000000000
      6218        46  DOPC      H13C           29.8455203494      -19.6313975840       17.6539952768  MEMB      46              0.0000000000
      6219        46  DOPC      C14            27.9956133092      -22.0929292635       19.1817168431  MEMB      46              0.0000000000
      6220        46  DOPC      H14A           26.9758268324      -22.0881890152       19.5819230116  MEMB      46              0.0000000000
      6221        46  DOPC      H14B           28.0418769376      -22.8650649888       18.4258711620  MEMB      46              0.0000000000
      6222        46  DOPC      H14C           28.6222983545      -22.3796810193       20.0108139240  MEMB      46              0.0000000000
      6223        46  DOPC      C15            28.2381963330      -19.7577400489       19.7816432675  MEMB      46              0.0000000000
      6224        46  DOPC      H15A           27.1809863595      -19.4916846003       19.9201991160  MEMB      46              0.0000000000
      6225        46  DOPC      H15B           28.7491933809      -18.8302555157       19.5758574733  MEMB      46              0.0000000000
      6226        46  DOPC      H15C           28.5693322632      -20.1657808589       20.7290567529  MEMB      46              0.0000000000
      6227        46  DOPC      C11            25.7665504017      -20.2615458719       18.0314079983  MEMB      46              0.0000000000
      6228        46  DOPC      H11A           25.1875185251      -20.0256072985       17.1018856861  MEMB      46              0.0000000000
      6229        46  DOPC      H11B           25.4098902446      -21.2403863588       18.4128309202  MEMB      46              0.0000000000
      6230        46  DOPC      P              24.1487921965      -18.6860894998       19.3499677600  MEMB      46              0.0000000000
      6231        46  DOPC      O13            24.2968755965      -17.5879475256       20.3330214196  MEMB      46              0.0000000000
      6232        46  DOPC      O14            23.2512248945      -19.8083375061       19.7167241081  MEMB      46              0.0000000000
      6233        46  DOPC      O12            25.5895394016      -19.2402144539       19.0036197609  MEMB      46              0.0000000000
      6234        46  DOPC      O11            23.6758875180      -18.0836085755       17.9707601169  MEMB      46              0.0000000000
      6235        46  DOPC      C1             22.4808617629      -17.3067993947       18.0251437203  MEMB      46              0.0000000000
      6236        46  DOPC      HA             22.6771358715      -16.3120322963       18.4950972488  MEMB      46              0.0000000000
      6237        46  DOPC      HB             21.7150271758      -17.8345457723       18.6345712813  MEMB      46              0.0000000000
      6238        46  DOPC      C2             21.8143516768      -17.0975555701       16.6360122931  MEMB      46              0.0000000000
      6239        46  DOPC      HS             20.7233030275      -17.1928790288       16.8056801492  MEMB      46              0.0000000000
      6240        46  DOPC      O21            22.3691275985      -18.0167691351       15.6506075631  MEMB      46              0.0000000000
      6241        46  DOPC      C21            21.4462664015      -18.7834500306       15.0964030046  MEMB      46              0.0000000000
      6242        46  DOPC      O22            20.2483504932      -18.6516042973       15.3028445932  MEMB      46              0.0000000000
      6243        46  DOPC      C22            22.0340582654      -19.9388692541       14.2625730591  MEMB      46              0.0000000000
      6244        46  DOPC      H2R            21.1495810531      -20.4601444473       13.8390819073  MEMB      46              0.0000000000
      6245        46  DOPC      H2S            22.5266424152      -20.6369063898       14.9713224558  MEMB      46              0.0000000000
      6246        46  DOPC      C3             21.9954247225      -15.6187104215       16.2048073603  MEMB      46              0.0000000000
      6247        46  DOPC      HX             21.3118288759      -15.0447256282       16.8692984009  MEMB      46              0.0000000000
      6248        46  DOPC      HY             21.6488674044      -15.4426759029       15.1562436642  MEMB      46              0.0000000000
      6249        46  DOPC      O31            23.3385521938      -15.1699012576       16.4660039536  MEMB      46              0.0000000000
      6250        46  DOPC      C31            24.1488719887      -15.6817518315       15.5537212942  MEMB      46              0.0000000000
      6251        46  DOPC      O32            23.8054869916      -15.9874735323       14.4251005903  MEMB      46              0.0000000000
      6252        46  DOPC      C32            25.5271242392      -15.9479246529       16.1196267476  MEMB      46              0.0000000000
      6253        46  DOPC      H2X            26.0497715545      -14.9773327986       16.2290761468  MEMB      46              0.0000000000
      6254        46  DOPC      H2Y            25.4091945351      -16.4210590684       17.1185382498  MEMB      46              0.0000000000
      6255        46  DOPC      C23            22.9895546553      -19.6098890827       13.0766883346  MEMB      46              0.0000000000
      6256        46  DOPC      H3R            23.9590016471      -20.1186228319       13.2876788563  MEMB      46              0.0000000000
      6257        46  DOPC      H3S            23.2017988472      -18.5214055157       13.0138236524  MEMB      46              0.0000000000
      6258        46  DOPC      C24            22.4746348930      -20.1425849439       11.7177152904  MEMB      46              0.0000000000
      6259        46  DOPC      H4R            21.5160220842      -19.6473236894       11.4541387216  MEMB      46              0.0000000000
      6260        46  DOPC      H4S            22.2861679003      -21.2350293859       11.8282378637  MEMB      46              0.0000000000
      6261        46  DOPC      C25            23.4726157587      -19.9965768936       10.5527782269  MEMB      46              0.0000000000
      6262        46  DOPC      H5R            24.3769756813      -20.5428142923       10.8786304939  MEMB      46              0.0000000000
      6263        46  DOPC      H5S            23.7334434741      -18.9217997275       10.4269624996  MEMB      46              0.0000000000
      6264        46  DOPC      C26            22.9930167534      -20.6036831534        9.2098380349  MEMB      46              0.0000000000
      6265        46  DOPC      H6R            22.3891159236      -19.8357177978        8.6780113219  MEMB      46              0.0000000000
      6266        46  DOPC      H6S            22.3373746401      -21.4763223860        9.4242795536  MEMB      46              0.0000000000
      6267        46  DOPC      C27            24.1060356675      -21.0792883307        8.2490942982  MEMB      46              0.0000000000
      6268        46  DOPC      H7R            24.5547268949      -22.0318743225        8.6003343524  MEMB      46              0.0000000000
      6269        46  DOPC      H7S            24.9301400520      -20.3222061334        8.2913181911  MEMB      46              0.0000000000
      6270        46  DOPC      C28            23.7022966769      -21.1144738679        6.7347933184  MEMB      46              0.0000000000
      6271        46  DOPC      H8R            24.6106063660      -21.4546538152        6.1758669604  MEMB      46              0.0000000000
      6272        46  DOPC      H8S            23.6013406680      -20.0481345051        6.5296490742  MEMB      46              0.0000000000
      6273        46  DOPC      C29            22.4844903873      -21.7338859163        6.0743672467  MEMB      46              0.0000000000
      6274        46  DOPC      H9R            22.5606913477      -22.8251143778        5.9541244325  MEMB      46              0.0000000000
      6275        46  DOPC      C210           21.3822124534      -21.1360725484        5.5379607627  MEMB      46              0.0000000000
      6276        46  DOPC      H10R           20.6855674129      -21.7963796374        5.0070344614  MEMB      46              0.0000000000
      6277        46  DOPC      C211           20.9494569382      -19.6814548172        5.4020821980  MEMB      46              0.0000000000
      6278        46  DOPC      H11R           21.7122948080      -18.9902419192        5.7888169189  MEMB      46              0.0000000000
      6279        46  DOPC      H11S           20.0576708928      -19.5242793107        6.0444289298  MEMB      46              0.0000000000
      6280        46  DOPC      C212           20.5452562114      -19.2798404144        3.9482561778  MEMB      46              0.0000000000
      6281        46  DOPC      H12R           19.7312956787      -19.9802960645        3.6494885069  MEMB      46              0.0000000000
      6282        46  DOPC      H12S           21.3953340344      -19.4679767210        3.2594572107  MEMB      46              0.0000000000
      6283        46  DOPC      C213           19.9895073420      -17.8453599913        3.6921307937  MEMB      46              0.0000000000
      6284        46  DOPC      H13R           19.6374376141      -17.3590844964        4.6239140041  MEMB      46              0.0000000000
      6285        46  DOPC      H13S           19.0803174085      -17.9928625270        3.0589573785  MEMB      46              0.0000000000
      6286        46  DOPC      C214           20.9066834848      -16.8834830318        2.8772372038  MEMB      46              0.0000000000
      6287        46  DOPC      H14R           20.2763601685      -16.2810012855        2.2119475265  MEMB      46              0.0000000000
      6288        46  DOPC      H14S           21.4775824838      -17.4991922842        2.1539964422  MEMB      46              0.0000000000
      6289        46  DOPC      C215           21.8826961570      -16.0489119510        3.7629582072  MEMB      46              0.0000000000
      6290        46  DOPC      H15R           22.8770672024      -16.4961605690        3.6072138644  MEMB      46              0.0000000000
      6291        46  DOPC      H15S           21.5340984918      -16.2329423203        4.7968119188  MEMB      46              0.0000000000
      6292        46  DOPC      C216           22.1631661429      -14.5137592337        3.7488588103  MEMB      46              0.0000000000
      6293        46  DOPC      H16R           21.3175229244      -13.9863084671        4.2507005354  MEMB      46              0.0000000000
      6294        46  DOPC      H16S           22.2137369399      -14.0910082898        2.7278594484  MEMB      46              0.0000000000
      6295        46  DOPC      C217           23.4103989015      -14.1602539594        4.6192064178  MEMB      46              0.0000000000
      6296        46  DOPC      H17R           23.3119865269      -14.7437554338        5.5581641714  MEMB      46              0.0000000000
      6297        46  DOPC      H17S           23.3701811051      -13.0944987131        4.9319079722  MEMB      46              0.0000000000
      6298        46  DOPC      C218           24.8298075751      -14.4214937406        4.0858503930  MEMB      46              0.0000000000
      6299        46  DOPC      H18R           25.2586323008      -15.3447574625        4.4984690763  MEMB      46              0.0000000000
      6300        46  DOPC      H18S           25.5132453071      -13.5946623134        4.3835134746  MEMB      46              0.0000000000
      6301        46  DOPC      H18T           24.8745453411      -14.5611757615        2.9952728937  MEMB      46              0.0000000000
      6302        46  DOPC      C33            26.2413082720      -16.8666696622       15.1082594135  MEMB      46              0.0000000000
      6303        46  DOPC      H3X            26.8740120065      -16.2380860052       14.4476107161  MEMB      46              0.0000000000
      6304        46  DOPC      H3Y            25.5342786769      -17.4140345703       14.4371558561  MEMB      46              0.0000000000
      6305        46  DOPC      C34            27.0380937062      -18.0103258474       15.7180360157  MEMB      46              0.0000000000
      6306        46  DOPC      H4X            26.3784558551      -18.9083025848       15.6942733783  MEMB      46              0.0000000000
      6307        46  DOPC      H4Y            27.2800144402      -17.7581860447       16.7744540990  MEMB      46              0.0000000000
      6308        46  DOPC      C35            28.3057600209      -18.2933587934       14.9090580342  MEMB      46              0.0000000000
      6309        46  DOPC      H5X            28.9539774855      -19.0599212987       15.3774433644  MEMB      46              0.0000000000
      6310        46  DOPC      H5Y            28.8300541519      -17.3167646765       14.9333779098  MEMB      46              0.0000000000
      6311        46  DOPC      C36            28.0386273190      -18.6034207246       13.4271224352  MEMB      46              0.0000000000
      6312        46  DOPC      H6X            26.9641445946      -18.4398331732       13.1952228478  MEMB      46              0.0000000000
      6313        46  DOPC      H6Y            28.6109626924      -17.8680319186       12.8153476331  MEMB      46              0.0000000000
      6314        46  DOPC      C37            28.4354445665      -20.0040692382       12.9370340656  MEMB      46              0.0000000000
      6315        46  DOPC      H7X            29.4836857206      -20.2241617919       13.2437084250  MEMB      46              0.0000000000
      6316        46  DOPC      H7Y            27.7761404653      -20.7759596858       13.3894681625  MEMB      46              0.0000000000
      6317        46  DOPC      C38            28.3852881995      -20.0838324498       11.3991266649  MEMB      46              0.0000000000
      6318        46  DOPC      H8X            28.5950415240      -21.1206422991       11.0785851768  MEMB      46              0.0000000000
      6319        46  DOPC      H8Y            29.2052121311      -19.4400694557       11.0110920856  MEMB      46              0.0000000000
      6320        46  DOPC      C39            27.0525691126      -19.6952198827       10.8299614901  MEMB      46              0.0000000000
      6321        46  DOPC      H9X            26.2499937095      -20.3852966600       11.1049603296  MEMB      46              0.0000000000
      6322        46  DOPC      C310           26.7796459101      -18.6222578994       10.0691819903  MEMB      46              0.0000000000
      6323        46  DOPC      H10X           25.7496247557      -18.4696864725        9.7110312898  MEMB      46              0.0000000000
      6324        46  DOPC      C311           27.7829624275      -17.5856462827        9.6347071713  MEMB      46              0.0000000000
      6325        46  DOPC      H11X           28.3031288673      -17.1998020175       10.5284896095  MEMB      46              0.0000000000
      6326        46  DOPC      H11Y           27.2772038325      -16.7092452133        9.1894112350  MEMB      46              0.0000000000
      6327        46  DOPC      C312           28.7917497454      -18.0781472697        8.5737779546  MEMB      46              0.0000000000
      6328        46  DOPC      H12X           29.4018351031      -18.9154622597        8.9720469648  MEMB      46              0.0000000000
      6329        46  DOPC      H12Y           29.4878309160      -17.2464987624        8.3274068333  MEMB      46              0.0000000000
      6330        46  DOPC      C313           28.0760218139      -18.5115636560        7.2933614377  MEMB      46              0.0000000000
      6331        46  DOPC      H13X           27.2297910426      -19.1843738793        7.5635883364  MEMB      46              0.0000000000
      6332        46  DOPC      H13Y           27.6335892545      -17.6045191911        6.8218579784  MEMB      46              0.0000000000
      6333        46  DOPC      C314           28.9230876633      -19.2600410798        6.2539503246  MEMB      46              0.0000000000
      6334        46  DOPC      H14X           29.6802045697      -18.5683885222        5.8219864573  MEMB      46              0.0000000000
      6335        46  DOPC      H14Y           29.4577696200      -20.1218294272        6.7120162439  MEMB      46              0.0000000000
      6336        46  DOPC      C315           27.9611545279      -19.7400810291        5.1610198733  MEMB      46              0.0000000000
      6337        46  DOPC      H15X           27.3566180075      -18.8448376439        4.9235943378  MEMB      46              0.0000000000
      6338        46  DOPC      H15Y           27.2584697821      -20.5011880766        5.5713860311  MEMB      46              0.0000000000
      6339        46  DOPC      C316           28.5698146309      -20.2551815856        3.8532992236  MEMB      46              0.0000000000
      6340        46  DOPC      H16X           29.3273607914      -19.5393222130        3.4697442826  MEMB      46              0.0000000000
      6341        46  DOPC      H16Y           29.0905969327      -21.2179287316        4.0483807234  MEMB      46              0.0000000000
      6342        46  DOPC      C317           27.4908080024      -20.4657439795        2.7732154333  MEMB      46              0.0000000000
      6343        46  DOPC      H17X           27.4171821188      -21.5559849716        2.5806418486  MEMB      46              0.0000000000
      6344        46  DOPC      H17Y           26.4948481007      -20.1540752751        3.1656165920  MEMB      46              0.0000000000
      6345        46  DOPC      C318           27.7494898111      -19.7194858309        1.4593651743  MEMB      46              0.0000000000
      6346        46  DOPC      H18X           28.6704971208      -20.1040972900        0.9678947839  MEMB      46              0.0000000000
      6347        46  DOPC      H18Y           26.8977715958      -19.8450806630        0.7555986387  MEMB      46              0.0000000000
      6348        46  DOPC      H18Z           27.8701574360      -18.6323076933        1.6527652932  MEMB      46              0.0000000000
      6349        47  DOPC      N             -26.5086916852      -22.9001217065       19.7440896990  MEMB      47              0.0000000000
      6350        47  DOPC      C12           -26.2667649481      -23.2181679369       18.2787554960  MEMB      47              0.0000000000
      6351        47  DOPC      H12A          -26.8674573744      -22.5942718083       17.6385776628  MEMB      47              0.0000000000
      6352        47  DOPC      H12B          -26.5431523227      -24.2534227907       18.0976635721  MEMB      47              0.0000000000
      6353        47  DOPC      C13           -25.9026198894      -24.0212995923       20.5549874142  MEMB      47              0.0000000000
      6354        47  DOPC      H13A          -26.4322782234      -24.9479428856       20.3826628769  MEMB      47              0.0000000000
      6355        47  DOPC      H13B          -24.8835181158      -24.1911388845       20.2013048737  MEMB      47              0.0000000000
      6356        47  DOPC      H13C          -25.8912721754      -23.8163676901       21.6136982391  MEMB      47              0.0000000000
      6357        47  DOPC      C14           -27.9456998420      -22.8684782326       20.1060125359  MEMB      47              0.0000000000
      6358        47  DOPC      H14A          -28.4124507913      -21.9497892234       19.7888162007  MEMB      47              0.0000000000
      6359        47  DOPC      H14B          -28.4739832814      -23.7380563335       19.7229061797  MEMB      47              0.0000000000
      6360        47  DOPC      H14C          -28.0373125105      -22.9263433563       21.1958517757  MEMB      47              0.0000000000
      6361        47  DOPC      C15           -25.8373181200      -21.6073262521       20.1134381040  MEMB      47              0.0000000000
      6362        47  DOPC      H15A          -26.0351649795      -21.3213154431       21.1312354799  MEMB      47              0.0000000000
      6363        47  DOPC      H15B          -26.0806018039      -20.7918769131       19.4452203394  MEMB      47              0.0000000000
      6364        47  DOPC      H15C          -24.7484424489      -21.7320221637       20.0160929882  MEMB      47              0.0000000000
      6365        47  DOPC      C11           -24.8130582485      -23.0491968323       17.7994500323  MEMB      47              0.0000000000
      6366        47  DOPC      H11A          -24.7577326076      -23.3351692804       16.7272456704  MEMB      47              0.0000000000
      6367        47  DOPC      H11B          -24.5446993448      -21.9624614959       17.8290139842  MEMB      47              0.0000000000
      6368        47  DOPC      P             -22.5543769474      -23.2847942662       19.0532135807  MEMB      47              0.0000000000
      6369        47  DOPC      O13           -21.7046849726      -24.3937382419       19.5368323915  MEMB      47              0.0000000000
      6370        47  DOPC      O14           -22.8651765516      -22.1803049297       19.9989077059  MEMB      47              0.0000000000
      6371        47  DOPC      O12           -23.9383890844      -23.8772307001       18.5728033931  MEMB      47              0.0000000000
      6372        47  DOPC      O11           -22.0726059279      -22.7164182814       17.6369420455  MEMB      47              0.0000000000
      6373        47  DOPC      C1            -20.8357093616      -22.0201669569       17.4966655409  MEMB      47              0.0000000000
      6374        47  DOPC      HA            -20.0152258861      -22.6056582648       17.9713461085  MEMB      47              0.0000000000
      6375        47  DOPC      HB            -20.9034574434      -21.0517837414       18.0204901188  MEMB      47              0.0000000000
      6376        47  DOPC      C2            -20.3488434088      -21.7307538866       16.0201790033  MEMB      47              0.0000000000
      6377        47  DOPC      HS            -19.3714664704      -21.2103710503       16.1573769335  MEMB      47              0.0000000000
      6378        47  DOPC      O21           -21.2554384862      -20.9104006129       15.2406704079  MEMB      47              0.0000000000
      6379        47  DOPC      C21           -20.6827918169      -20.2712937546       14.2139538482  MEMB      47              0.0000000000
      6380        47  DOPC      O22           -19.4829386430      -20.0946549957       14.0867846890  MEMB      47              0.0000000000
      6381        47  DOPC      C22           -21.7480195478      -19.6862718209       13.2846313287  MEMB      47              0.0000000000
      6382        47  DOPC      H2R           -22.1872674048      -18.8283592000       13.8342237016  MEMB      47              0.0000000000
      6383        47  DOPC      H2S           -22.5404173541      -20.4284483640       13.0890258453  MEMB      47              0.0000000000
      6384        47  DOPC      C3            -20.0912767722      -23.0444323324       15.2260684392  MEMB      47              0.0000000000
      6385        47  DOPC      HX            -19.4818967079      -23.7105631189       15.8817579825  MEMB      47              0.0000000000
      6386        47  DOPC      HY            -19.4752273656      -22.8017531821       14.3348737166  MEMB      47              0.0000000000
      6387        47  DOPC      O31           -21.3409121689      -23.6227689547       14.7862913829  MEMB      47              0.0000000000
      6388        47  DOPC      C31           -21.6504528374      -24.8015221512       15.3172699134  MEMB      47              0.0000000000
      6389        47  DOPC      O32           -20.8484693862      -25.6064329558       15.7540277521  MEMB      47              0.0000000000
      6390        47  DOPC      C32           -23.1737789331      -24.9496832190       15.3407796832  MEMB      47              0.0000000000
      6391        47  DOPC      H2X           -23.4315976573      -24.9838636143       16.4220048844  MEMB      47              0.0000000000
      6392        47  DOPC      H2Y           -23.6307943120      -24.0478015705       14.8878756391  MEMB      47              0.0000000000
      6393        47  DOPC      C23           -21.1272695157      -19.1268727794       11.9873958735  MEMB      47              0.0000000000
      6394        47  DOPC      H3R           -20.2673386599      -18.5199436762       12.3105099506  MEMB      47              0.0000000000
      6395        47  DOPC      H3S           -21.8519647763      -18.4518547403       11.4767718896  MEMB      47              0.0000000000
      6396        47  DOPC      C24           -20.6314217540      -20.1522261324       10.9603838661  MEMB      47              0.0000000000
      6397        47  DOPC      H4R           -19.8301366844      -20.7871706939       11.4002425698  MEMB      47              0.0000000000
      6398        47  DOPC      H4S           -20.1701131459      -19.5936653024       10.1124255723  MEMB      47              0.0000000000
      6399        47  DOPC      C25           -21.7756142064      -21.0149757787       10.4340684639  MEMB      47              0.0000000000
      6400        47  DOPC      H5R           -21.7068891553      -21.1246456687        9.3289307444  MEMB      47              0.0000000000
      6401        47  DOPC      H5S           -22.7349758627      -20.4917917807       10.6497872270  MEMB      47              0.0000000000
      6402        47  DOPC      C26           -21.8106589246      -22.4017564551       11.0810501460  MEMB      47              0.0000000000
      6403        47  DOPC      H6R           -22.8700322560      -22.7436884889       11.0858308333  MEMB      47              0.0000000000
      6404        47  DOPC      H6S           -21.4808082904      -22.3663902438       12.1420968704  MEMB      47              0.0000000000
      6405        47  DOPC      C27           -20.9698811699      -23.4146676179       10.3007931186  MEMB      47              0.0000000000
      6406        47  DOPC      H7R           -19.8942147747      -23.1390095629       10.3739327586  MEMB      47              0.0000000000
      6407        47  DOPC      H7S           -21.2338249943      -23.3465543795        9.2317890235  MEMB      47              0.0000000000
      6408        47  DOPC      C28           -21.1623879938      -24.8612216833       10.7841856064  MEMB      47              0.0000000000
      6409        47  DOPC      H8R           -20.7538197800      -24.8878600393       11.8217464861  MEMB      47              0.0000000000
      6410        47  DOPC      H8S           -20.4972169287      -25.5205627691       10.1804992316  MEMB      47              0.0000000000
      6411        47  DOPC      C29           -22.5529592997      -25.4571201427       10.8091697845  MEMB      47              0.0000000000
      6412        47  DOPC      H9R           -22.6456732453      -26.2239216397       11.5942241037  MEMB      47              0.0000000000
      6413        47  DOPC      C210          -23.6456533387      -25.2581814477       10.0341057414  MEMB      47              0.0000000000
      6414        47  DOPC      H10R          -24.5455926862      -25.8370129531       10.2921306194  MEMB      47              0.0000000000
      6415        47  DOPC      C211          -23.8849960598      -24.3574762173        8.8444486165  MEMB      47              0.0000000000
      6416        47  DOPC      H11R          -23.4018549689      -23.3739478567        8.9987797979  MEMB      47              0.0000000000
      6417        47  DOPC      H11S          -24.9782628995      -24.1479085061        8.8029574997  MEMB      47              0.0000000000
      6418        47  DOPC      C212          -23.4692727972      -24.8836812394        7.4419561259  MEMB      47              0.0000000000
      6419        47  DOPC      H12R          -24.0268753133      -24.3490315447        6.6482075871  MEMB      47              0.0000000000
      6420        47  DOPC      H12S          -23.7619150260      -25.9442855200        7.3194923738  MEMB      47              0.0000000000
      6421        47  DOPC      C213          -21.9794547078      -24.6522575387        7.1527147026  MEMB      47              0.0000000000
      6422        47  DOPC      H13R          -21.4002230767      -25.2205931214        7.9150469380  MEMB      47              0.0000000000
      6423        47  DOPC      H13S          -21.7550443707      -23.5711813630        7.2886603217  MEMB      47              0.0000000000
      6424        47  DOPC      C214          -21.4819894203      -25.0528230112        5.7552954038  MEMB      47              0.0000000000
      6425        47  DOPC      H14R          -22.1411513622      -25.8299738401        5.3131328626  MEMB      47              0.0000000000
      6426        47  DOPC      H14S          -20.4719765358      -25.5025231406        5.9019238980  MEMB      47              0.0000000000
      6427        47  DOPC      C215          -21.3207611683      -23.8660456616        4.7921867262  MEMB      47              0.0000000000
      6428        47  DOPC      H15R          -20.9038001463      -22.9945209522        5.3452666452  MEMB      47              0.0000000000
      6429        47  DOPC      H15S          -22.3268551928      -23.5743225316        4.4148287917  MEMB      47              0.0000000000
      6430        47  DOPC      C216          -20.3969160015      -24.1589542149        3.5964046575  MEMB      47              0.0000000000
      6431        47  DOPC      H16R          -20.4250950788      -23.2770636014        2.9161422301  MEMB      47              0.0000000000
      6432        47  DOPC      H16S          -20.7953873879      -25.0266726734        3.0256970778  MEMB      47              0.0000000000
      6433        47  DOPC      C217          -18.9264001926      -24.4203311160        3.9739753438  MEMB      47              0.0000000000
      6434        47  DOPC      H17R          -18.7437068377      -25.5194368729        4.0025454884  MEMB      47              0.0000000000
      6435        47  DOPC      H17S          -18.7498696379      -24.0408808952        5.0042667622  MEMB      47              0.0000000000
      6436        47  DOPC      C218          -17.9239191541      -23.7492174460        3.0245294340  MEMB      47              0.0000000000
      6437        47  DOPC      H18R          -16.9025305626      -24.1685798034        3.1586080013  MEMB      47              0.0000000000
      6438        47  DOPC      H18S          -17.8926339416      -22.6562891506        3.2149010231  MEMB      47              0.0000000000
      6439        47  DOPC      H18T          -18.2202994282      -23.8916685390        1.9646702104  MEMB      47              0.0000000000
      6440        47  DOPC      C33           -23.7444956915      -26.2362055000       14.7021694209  MEMB      47              0.0000000000
      6441        47  DOPC      H3X           -23.2010846237      -27.1167191539       15.1257644731  MEMB      47              0.0000000000
      6442        47  DOPC      H3Y           -23.5791289227      -26.2340113189       13.6067657860  MEMB      47              0.0000000000
      6443        47  DOPC      C34           -25.2427043856      -26.4172293116       15.0129815035  MEMB      47              0.0000000000
      6444        47  DOPC      H4X           -25.3512709679      -26.4440716264       16.1242697018  MEMB      47              0.0000000000
      6445        47  DOPC      H4Y           -25.5708031939      -27.4086681256       14.6315582236  MEMB      47              0.0000000000
      6446        47  DOPC      C35           -26.1945295876      -25.3245423872       14.4771171886  MEMB      47              0.0000000000
      6447        47  DOPC      H5X           -25.9682131474      -24.3708142034       15.0018167271  MEMB      47              0.0000000000
      6448        47  DOPC      H5Y           -27.2364749514      -25.6063309207       14.7529936956  MEMB      47              0.0000000000
      6449        47  DOPC      C36           -26.1621457273      -25.0506747034       12.9622965487  MEMB      47              0.0000000000
      6450        47  DOPC      H6X           -25.1262385408      -24.7842832403       12.6541747329  MEMB      47              0.0000000000
      6451        47  DOPC      H6Y           -26.4696894652      -25.9618605193       12.4039390652  MEMB      47              0.0000000000
      6452        47  DOPC      C37           -27.0854677589      -23.8728313691       12.5821861809  MEMB      47              0.0000000000
      6453        47  DOPC      H7X           -28.0953117202      -24.0416923101       13.0195130725  MEMB      47              0.0000000000
      6454        47  DOPC      H7Y           -26.6609780487      -22.9560360999       13.0525185519  MEMB      47              0.0000000000
      6455        47  DOPC      C38           -27.2211572520      -23.6407958040       11.0612990304  MEMB      47              0.0000000000
      6456        47  DOPC      H8X           -27.8432742023      -24.4554361649       10.6270714824  MEMB      47              0.0000000000
      6457        47  DOPC      H8Y           -26.2128815202      -23.7287017554       10.6046472613  MEMB      47              0.0000000000
      6458        47  DOPC      C39           -27.8446942011      -22.3062440511       10.7300562049  MEMB      47              0.0000000000
      6459        47  DOPC      H9X           -28.9411068002      -22.3245384648       10.6883273730  MEMB      47              0.0000000000
      6460        47  DOPC      C310          -27.2054901355      -21.1561292575       10.4353143559  MEMB      47              0.0000000000
      6461        47  DOPC      H10X          -27.7987434780      -20.2486927885       10.2298464446  MEMB      47              0.0000000000
      6462        47  DOPC      C311          -25.7132969524      -20.9604619713       10.3756153581  MEMB      47              0.0000000000
      6463        47  DOPC      H11X          -25.1873173131      -21.7848403632       10.9117435275  MEMB      47              0.0000000000
      6464        47  DOPC      H11Y          -25.4540273396      -20.0432422266       10.9501701455  MEMB      47              0.0000000000
      6465        47  DOPC      C312          -25.0492879602      -20.8209500870        8.9762801296  MEMB      47              0.0000000000
      6466        47  DOPC      H12X          -24.1639106118      -21.4869701130        8.9793686001  MEMB      47              0.0000000000
      6467        47  DOPC      H12Y          -24.6141587902      -19.8040858749        8.8848007596  MEMB      47              0.0000000000
      6468        47  DOPC      C313          -25.8780030821      -21.0759546568        7.6937945360  MEMB      47              0.0000000000
      6469        47  DOPC      H13X          -26.9448521161      -21.3019059736        7.8884403352  MEMB      47              0.0000000000
      6470        47  DOPC      H13Y          -25.8745456306      -20.1312257137        7.1192195034  MEMB      47              0.0000000000
      6471        47  DOPC      C314          -25.2700740699      -22.1720009112        6.8052733728  MEMB      47              0.0000000000
      6472        47  DOPC      H14X          -24.2083200999      -22.3122068813        7.1045128232  MEMB      47              0.0000000000
      6473        47  DOPC      H14Y          -25.8259977148      -23.1196649971        6.9905295406  MEMB      47              0.0000000000
      6474        47  DOPC      C315          -25.2298986119      -21.9323197454        5.2911647388  MEMB      47              0.0000000000
      6475        47  DOPC      H15X          -24.7968968206      -22.8456310656        4.8255638294  MEMB      47              0.0000000000
      6476        47  DOPC      H15Y          -24.5168186615      -21.1236224734        5.0338886035  MEMB      47              0.0000000000
      6477        47  DOPC      C316          -26.6158338194      -21.6563375064        4.7055974671  MEMB      47              0.0000000000
      6478        47  DOPC      H16X          -27.3604609773      -22.3109222977        5.2084526678  MEMB      47              0.0000000000
      6479        47  DOPC      H16Y          -26.8968234105      -20.5975576027        4.9109081286  MEMB      47              0.0000000000
      6480        47  DOPC      C317          -26.6791802660      -21.9091701342        3.2006742541  MEMB      47              0.0000000000
      6481        47  DOPC      H17X          -27.6387112256      -21.4995063548        2.8078597575  MEMB      47              0.0000000000
      6482        47  DOPC      H17Y          -25.8514330197      -21.3197102021        2.7462627122  MEMB      47              0.0000000000
      6483        47  DOPC      C318          -26.5593215911      -23.3811183208        2.7803023388  MEMB      47              0.0000000000
      6484        47  DOPC      H18X          -26.6661455512      -23.4967880577        1.6798263513  MEMB      47              0.0000000000
      6485        47  DOPC      H18Y          -25.5662129070      -23.7896161811        3.0601976831  MEMB      47              0.0000000000
      6486        47  DOPC      H18Z          -27.3490310644      -23.9953087907        3.2614651789  MEMB      47              0.0000000000
      6487        48  DOPC      N             -17.6376349846       28.4093168027       19.7985342034  MEMB      48              0.0000000000
      6488        48  DOPC      C12           -18.6629938453       27.5771336837       20.5622907569  MEMB      48              0.0000000000
      6489        48  DOPC      H12A          -19.1201721058       28.2243908126       21.2956619689  MEMB      48              0.0000000000
      6490        48  DOPC      H12B          -18.1979980251       26.7542671449       21.0929579427  MEMB      48              0.0000000000
      6491        48  DOPC      C13           -17.5134637949       27.8372418667       18.4149469827  MEMB      48              0.0000000000
      6492        48  DOPC      H13A          -16.7869159669       28.3455086759       17.8070710189  MEMB      48              0.0000000000
      6493        48  DOPC      H13B          -17.2930036156       26.7747227442       18.4515628472  MEMB      48              0.0000000000
      6494        48  DOPC      H13C          -18.4920414622       27.9125655580       17.9215089919  MEMB      48              0.0000000000
      6495        48  DOPC      C14           -16.2852914500       28.3954725087       20.4337075043  MEMB      48              0.0000000000
      6496        48  DOPC      H14A          -16.3005892659       28.8309488149       21.4261815331  MEMB      48              0.0000000000
      6497        48  DOPC      H14B          -15.9222463987       27.3708465890       20.5167008654  MEMB      48              0.0000000000
      6498        48  DOPC      H14C          -15.5747464346       28.9138179640       19.7998582496  MEMB      48              0.0000000000
      6499        48  DOPC      C15           -18.2204394986       29.7899763639       19.6778531816  MEMB      48              0.0000000000
      6500        48  DOPC      H15A          -18.2724230798       30.3143314559       20.6232890668  MEMB      48              0.0000000000
      6501        48  DOPC      H15B          -19.2686310750       29.7036919438       19.3351824713  MEMB      48              0.0000000000
      6502        48  DOPC      H15C          -17.7327551758       30.3912831854       18.9277507880  MEMB      48              0.0000000000
      6503        48  DOPC      C11           -19.8264468102       27.0214915590       19.7074504752  MEMB      48              0.0000000000
      6504        48  DOPC      H11A          -19.4406726386       26.1806343031       19.0876198531  MEMB      48              0.0000000000
      6505        48  DOPC      H11B          -20.6224473164       26.6074838012       20.3721986371  MEMB      48              0.0000000000
      6506        48  DOPC      P             -21.6748244494       27.8839643755       18.0537544970  MEMB      48              0.0000000000
      6507        48  DOPC      O13           -21.7610901508       29.1042645227       17.2250683624  MEMB      48              0.0000000000
      6508        48  DOPC      O14           -22.7395930882       27.5796660859       19.0392519138  MEMB      48              0.0000000000
      6509        48  DOPC      O12           -20.3364823451       28.0539632387       18.8727204457  MEMB      48              0.0000000000
      6510        48  DOPC      O11           -21.3365779605       26.6067195561       17.1878414899  MEMB      48              0.0000000000
      6511        48  DOPC      C1            -21.7317165720       25.3132929419       17.6586060344  MEMB      48              0.0000000000
      6512        48  DOPC      HA            -22.8209665017       25.2810413314       17.9203597638  MEMB      48              0.0000000000
      6513        48  DOPC      HB            -21.1602733733       25.0446126825       18.5703926877  MEMB      48              0.0000000000
      6514        48  DOPC      C2            -21.4594068643       24.2040609528       16.6012667045  MEMB      48              0.0000000000
      6515        48  DOPC      HS            -21.2476106338       23.2426672004       17.1269116518  MEMB      48              0.0000000000
      6516        48  DOPC      O21           -20.3752476890       24.5199394331       15.7023232352  MEMB      48              0.0000000000
      6517        48  DOPC      C21           -19.1878696996       24.6465017652       16.2305529809  MEMB      48              0.0000000000
      6518        48  DOPC      O22           -18.8577552437       24.3395787212       17.3692656756  MEMB      48              0.0000000000
      6519        48  DOPC      C22           -18.1863867571       24.9976582588       15.1196755561  MEMB      48              0.0000000000
      6520        48  DOPC      H2R           -18.2594645097       24.2099025884       14.3422535121  MEMB      48              0.0000000000
      6521        48  DOPC      H2S           -17.1757732925       24.9320713366       15.5765760298  MEMB      48              0.0000000000
      6522        48  DOPC      C3            -22.7453309837       23.9745472239       15.7724346878  MEMB      48              0.0000000000
      6523        48  DOPC      HX            -23.2203480935       24.9621619727       15.5579519392  MEMB      48              0.0000000000
      6524        48  DOPC      HY            -23.4567428302       23.4111425332       16.4153584669  MEMB      48              0.0000000000
      6525        48  DOPC      O31           -22.4604996738       23.1971169017       14.5950502037  MEMB      48              0.0000000000
      6526        48  DOPC      C31           -22.3020857891       23.8836567963       13.4754715590  MEMB      48              0.0000000000
      6527        48  DOPC      O32           -22.4654485488       25.0834664188       13.3328952783  MEMB      48              0.0000000000
      6528        48  DOPC      C32           -21.8774115439       22.9346027981       12.3375925760  MEMB      48              0.0000000000
      6529        48  DOPC      H2X           -20.7817445298       23.0456071173       12.2220974335  MEMB      48              0.0000000000
      6530        48  DOPC      H2Y           -22.0988944057       21.8934511199       12.6532953075  MEMB      48              0.0000000000
      6531        48  DOPC      C23           -18.3832954976       26.3940576071       14.4748878071  MEMB      48              0.0000000000
      6532        48  DOPC      H3R           -17.4753692256       26.6110925906       13.8688789985  MEMB      48              0.0000000000
      6533        48  DOPC      H3S           -18.4606314599       27.1849962877       15.2531995388  MEMB      48              0.0000000000
      6534        48  DOPC      C24           -19.5871031031       26.4605501086       13.5237477678  MEMB      48              0.0000000000
      6535        48  DOPC      H4R           -20.5053874532       26.2684521193       14.1225728130  MEMB      48              0.0000000000
      6536        48  DOPC      H4S           -19.4994806831       25.6598737600       12.7560397473  MEMB      48              0.0000000000
      6537        48  DOPC      C25           -19.8040488073       27.8150277897       12.8302223207  MEMB      48              0.0000000000
      6538        48  DOPC      H5R           -18.8646712153       28.1708174733       12.3557763199  MEMB      48              0.0000000000
      6539        48  DOPC      H5S           -20.0928919144       28.5585360577       13.6090390326  MEMB      48              0.0000000000
      6540        48  DOPC      C26           -20.9155461964       27.7474443390       11.7641211906  MEMB      48              0.0000000000
      6541        48  DOPC      H6R           -21.7869828228       27.1942327863       12.1817036643  MEMB      48              0.0000000000
      6542        48  DOPC      H6S           -20.5516722275       27.1745505087       10.8829380260  MEMB      48              0.0000000000
      6543        48  DOPC      C27           -21.3971109684       29.1361362012       11.3266081071  MEMB      48              0.0000000000
      6544        48  DOPC      H7R           -20.5559690278       29.6283991033       10.7888498979  MEMB      48              0.0000000000
      6545        48  DOPC      H7S           -21.6144337986       29.7351442770       12.2417249760  MEMB      48              0.0000000000
      6546        48  DOPC      C28           -22.6642587291       29.0813987327       10.4489541461  MEMB      48              0.0000000000
      6547        48  DOPC      H8R           -23.5238844950       28.7799894009       11.0872849386  MEMB      48              0.0000000000
      6548        48  DOPC      H8S           -22.5415548174       28.2877542694        9.6788812064  MEMB      48              0.0000000000
      6549        48  DOPC      C29           -22.9586719952       30.3966986804        9.7850215661  MEMB      48              0.0000000000
      6550        48  DOPC      H9R           -23.8298940890       30.9455186664       10.1764438759  MEMB      48              0.0000000000
      6551        48  DOPC      C210          -22.2504230218       30.9367557776        8.7781344717  MEMB      48              0.0000000000
      6552        48  DOPC      H10R          -22.5566587293       31.9096299492        8.3823302684  MEMB      48              0.0000000000
      6553        48  DOPC      C211          -21.0373500693       30.3662301870        8.0995979761  MEMB      48              0.0000000000
      6554        48  DOPC      H11R          -20.8595352946       29.3183985807        8.4201380819  MEMB      48              0.0000000000
      6555        48  DOPC      H11S          -20.1333707119       30.9537941551        8.3721977260  MEMB      48              0.0000000000
      6556        48  DOPC      C212          -21.1992054297       30.3928633405        6.5698824198  MEMB      48              0.0000000000
      6557        48  DOPC      H12R          -20.3066494218       29.9156861973        6.1084030075  MEMB      48              0.0000000000
      6558        48  DOPC      H12S          -21.2287317560       31.4345467108        6.1963832372  MEMB      48              0.0000000000
      6559        48  DOPC      C213          -22.4594126999       29.6629112795        6.0964947887  MEMB      48              0.0000000000
      6560        48  DOPC      H13R          -23.3597905623       30.2921787030        6.2769375379  MEMB      48              0.0000000000
      6561        48  DOPC      H13S          -22.5748600550       28.7341304999        6.6994359206  MEMB      48              0.0000000000
      6562        48  DOPC      C214          -22.3982142477       29.2918335687        4.6165208625  MEMB      48              0.0000000000
      6563        48  DOPC      H14R          -21.4107895759       28.8363218397        4.3897586085  MEMB      48              0.0000000000
      6564        48  DOPC      H14S          -22.4863804588       30.2146060619        4.0044078962  MEMB      48              0.0000000000
      6565        48  DOPC      C215          -23.4782008665       28.2709043065        4.2519756055  MEMB      48              0.0000000000
      6566        48  DOPC      H15R          -24.4824570516       28.7206184375        4.4165164700  MEMB      48              0.0000000000
      6567        48  DOPC      H15S          -23.3824690681       27.3938491326        4.9334156374  MEMB      48              0.0000000000
      6568        48  DOPC      C216          -23.3550002152       27.7847206273        2.8064683510  MEMB      48              0.0000000000
      6569        48  DOPC      H16R          -24.0981506158       26.9773062082        2.6411346171  MEMB      48              0.0000000000
      6570        48  DOPC      H16S          -22.3466230625       27.3472769238        2.6407459826  MEMB      48              0.0000000000
      6571        48  DOPC      C217          -23.5926457992       28.9061022880        1.7934560104  MEMB      48              0.0000000000
      6572        48  DOPC      H17R          -22.7952167771       29.6737300831        1.9137608799  MEMB      48              0.0000000000
      6573        48  DOPC      H17S          -24.5669452286       29.3909466233        2.0305455666  MEMB      48              0.0000000000
      6574        48  DOPC      C218          -23.6078621965       28.4217745476        0.3461901533  MEMB      48              0.0000000000
      6575        48  DOPC      H18R          -23.8870023468       27.3494462374        0.3194949195  MEMB      48              0.0000000000
      6576        48  DOPC      H18S          -22.6040378546       28.5463021985       -0.1172664530  MEMB      48              0.0000000000
      6577        48  DOPC      H18T          -24.3502760420       28.9778937539       -0.2625918497  MEMB      48              0.0000000000
      6578        48  DOPC      C33           -22.5872624388       23.2480723807       10.9927235660  MEMB      48              0.0000000000
      6579        48  DOPC      H3X           -22.2633790347       24.2434559496       10.6181950825  MEMB      48              0.0000000000
      6580        48  DOPC      H3Y           -23.6735096464       23.3035303478       11.1377130028  MEMB      48              0.0000000000
      6581        48  DOPC      C34           -22.4513647840       22.1794518198        9.9044617491  MEMB      48              0.0000000000
      6582        48  DOPC      H4X           -23.1560108970       22.4237548856        9.0781493506  MEMB      48              0.0000000000
      6583        48  DOPC      H4Y           -22.7423249578       21.1807330956       10.2985149606  MEMB      48              0.0000000000
      6584        48  DOPC      C35           -21.0603899916       22.1683896720        9.3041459593  MEMB      48              0.0000000000
      6585        48  DOPC      H5X           -20.8487608859       21.2227511287        8.7768227187  MEMB      48              0.0000000000
      6586        48  DOPC      H5Y           -20.3024463572       22.2829149192       10.1076050095  MEMB      48              0.0000000000
      6587        48  DOPC      C36           -20.9223821520       23.2254591122        8.2240335147  MEMB      48              0.0000000000
      6588        48  DOPC      H6X           -21.3580627151       22.8120594887        7.2832839778  MEMB      48              0.0000000000
      6589        48  DOPC      H6Y           -21.5018017531       24.1387690146        8.4754723897  MEMB      48              0.0000000000
      6590        48  DOPC      C37           -19.4581423923       23.5752789491        8.0090101546  MEMB      48              0.0000000000
      6591        48  DOPC      H7X           -18.8188649165       22.6709708671        8.1327191987  MEMB      48              0.0000000000
      6592        48  DOPC      H7Y           -19.3813584116       23.8911713631        6.9423085285  MEMB      48              0.0000000000
      6593        48  DOPC      C38           -18.9887888432       24.6881694324        8.9502874899  MEMB      48              0.0000000000
      6594        48  DOPC      H8X           -18.6296940757       24.2667679020        9.9121409137  MEMB      48              0.0000000000
      6595        48  DOPC      H8Y           -19.8612724084       25.3364887531        9.1873499578  MEMB      48              0.0000000000
      6596        48  DOPC      C39           -17.9171916188       25.4645257024        8.2479455944  MEMB      48              0.0000000000
      6597        48  DOPC      H9X           -16.9053164653       25.0356828055        8.2691392218  MEMB      48              0.0000000000
      6598        48  DOPC      C310          -18.1410976747       26.5689755901        7.5308407964  MEMB      48              0.0000000000
      6599        48  DOPC      H10X          -17.2999682802       26.9876091488        6.9651451123  MEMB      48              0.0000000000
      6600        48  DOPC      C311          -19.4659148284       27.2459844713        7.2878120433  MEMB      48              0.0000000000
      6601        48  DOPC      H11X          -19.2825508868       28.3292063090        7.1262954314  MEMB      48              0.0000000000
      6602        48  DOPC      H11Y          -20.1500952711       27.1659205774        8.1619029608  MEMB      48              0.0000000000
      6603        48  DOPC      C312          -20.1684884588       26.6836330276        6.0396471660  MEMB      48              0.0000000000
      6604        48  DOPC      H12X          -21.1770065017       27.1395874363        5.9374376376  MEMB      48              0.0000000000
      6605        48  DOPC      H12Y          -20.3336640095       25.5923494865        6.1650365078  MEMB      48              0.0000000000
      6606        48  DOPC      C313          -19.3414985536       26.9530372211        4.7773823160  MEMB      48              0.0000000000
      6607        48  DOPC      H13X          -19.4854429276       28.0004977347        4.4375378031  MEMB      48              0.0000000000
      6608        48  DOPC      H13Y          -18.2625154740       26.8673406854        5.0250290936  MEMB      48              0.0000000000
      6609        48  DOPC      C314          -19.5729843119       25.9804880002        3.6196121830  MEMB      48              0.0000000000
      6610        48  DOPC      H14X          -19.8914905860       24.9803312387        3.9855589551  MEMB      48              0.0000000000
      6611        48  DOPC      H14Y          -20.3984410812       26.3950846155        3.0062005770  MEMB      48              0.0000000000
      6612        48  DOPC      C315          -18.2706323104       25.8332103608        2.8145512840  MEMB      48              0.0000000000
      6613        48  DOPC      H15X          -17.5547439006       25.1941962103        3.3788012548  MEMB      48              0.0000000000
      6614        48  DOPC      H15Y          -17.8201885337       26.8417503082        2.7250290760  MEMB      48              0.0000000000
      6615        48  DOPC      C316          -18.4232847679       25.3194139433        1.3853288621  MEMB      48              0.0000000000
      6616        48  DOPC      H16X          -17.4242926148       25.3227198656        0.8919450910  MEMB      48              0.0000000000
      6617        48  DOPC      H16Y          -18.7863422637       24.2667718639        1.4098464431  MEMB      48              0.0000000000
      6618        48  DOPC      C317          -19.3913227220       26.1618735324        0.5475840138  MEMB      48              0.0000000000
      6619        48  DOPC      H17X          -19.3553453376       25.7649910411       -0.4894687445  MEMB      48              0.0000000000
      6620        48  DOPC      H17Y          -20.4083791893       25.9660192486        0.9525128239  MEMB      48              0.0000000000
      6621        48  DOPC      C318          -19.1728494780       27.6830070885        0.5313028670  MEMB      48              0.0000000000
      6622        48  DOPC      H18X          -19.2092592536       28.0924802471        1.5633939625  MEMB      48              0.0000000000
      6623        48  DOPC      H18Y          -18.1953537759       27.9425162400        0.0728150120  MEMB      48              0.0000000000
      6624        48  DOPC      H18Z          -19.9795612880       28.1920475003       -0.0390847907  MEMB      48              0.0000000000
      6625        49  DOPC      N              32.4019452935       22.4503407410       21.5271035546  MEMB      49              0.0000000000
      6626        49  DOPC      C12            32.4312492318       21.6396691769       20.2361448815  MEMB      49              0.0000000000
      6627        49  DOPC      H12A           31.9191527125       20.6955524833       20.3438253620  MEMB      49              0.0000000000
      6628        49  DOPC      H12B           33.4759645442       21.4081748648       20.0296392261  MEMB      49              0.0000000000
      6629        49  DOPC      C13            33.0321623419       23.7860245437       21.2627281528  MEMB      49              0.0000000000
      6630        49  DOPC      H13A           34.1084936305       23.7098402485       21.1817393808  MEMB      49              0.0000000000
      6631        49  DOPC      H13B           32.7215637186       24.1484841180       20.2764687573  MEMB      49              0.0000000000
      6632        49  DOPC      H13C           32.7759588126       24.5208291383       22.0079785045  MEMB      49              0.0000000000
      6633        49  DOPC      C14            33.1908383708       21.7489242250       22.5855860767  MEMB      49              0.0000000000
      6634        49  DOPC      H14A           34.2488496429       21.6934084369       22.3210713487  MEMB      49              0.0000000000
      6635        49  DOPC      H14B           33.1305499838       22.3017201703       23.5180611132  MEMB      49              0.0000000000
      6636        49  DOPC      H14C           32.8568194092       20.7344493295       22.7433049505  MEMB      49              0.0000000000
      6637        49  DOPC      C15            31.0115736503       22.6758187741       22.0073874069  MEMB      49              0.0000000000
      6638        49  DOPC      H15A           30.4654748001       21.7482480630       22.1116755685  MEMB      49              0.0000000000
      6639        49  DOPC      H15B           30.4958452178       23.3300607067       21.3156864049  MEMB      49              0.0000000000
      6640        49  DOPC      H15C           31.0372884568       23.1881235679       22.9681235252  MEMB      49              0.0000000000
      6641        49  DOPC      C11            31.9320165980       22.3094742802       18.9444857629  MEMB      49              0.0000000000
      6642        49  DOPC      H11A           31.8199011010       21.5341481167       18.1474762753  MEMB      49              0.0000000000
      6643        49  DOPC      H11B           30.9383220930       22.7772414658       19.1347604260  MEMB      49              0.0000000000
      6644        49  DOPC      P              32.7002895710       24.1896588613       17.3000614857  MEMB      49              0.0000000000
      6645        49  DOPC      O13            33.0815394489       23.4454101946       16.0897269879  MEMB      49              0.0000000000
      6646        49  DOPC      O14            33.3231763177       25.4842478894       17.6116038469  MEMB      49              0.0000000000
      6647        49  DOPC      O12            32.9072628290       23.2610039675       18.5435344474  MEMB      49              0.0000000000
      6648        49  DOPC      O11            31.1406451514       24.2538631064       17.3519392962  MEMB      49              0.0000000000
      6649        49  DOPC      C1             30.4348040496       25.4697200392       17.2880102155  MEMB      49              0.0000000000
      6650        49  DOPC      HA             30.9436283736       26.3036965668       17.8230837767  MEMB      49              0.0000000000
      6651        49  DOPC      HB             29.4615706166       25.2829213346       17.7889785827  MEMB      49              0.0000000000
      6652        49  DOPC      C2             30.1681344795       25.8055474878       15.8122631502  MEMB      49              0.0000000000
      6653        49  DOPC      HS             30.0666489855       24.8181661684       15.2952033513  MEMB      49              0.0000000000
      6654        49  DOPC      O21            31.2750034216       26.5537052625       15.2740651727  MEMB      49              0.0000000000
      6655        49  DOPC      C21            31.2997832711       26.5199057224       13.9589000247  MEMB      49              0.0000000000
      6656        49  DOPC      O22            30.4318374014       26.0746179649       13.2296729467  MEMB      49              0.0000000000
      6657        49  DOPC      C22            32.6062453116       27.0787925040       13.4333440417  MEMB      49              0.0000000000
      6658        49  DOPC      H2R            33.4017774739       26.9440876731       14.1985695487  MEMB      49              0.0000000000
      6659        49  DOPC      H2S            32.4787658471       28.1600967522       13.2283155750  MEMB      49              0.0000000000
      6660        49  DOPC      C3             28.8358519955       26.5914053638       15.6919553315  MEMB      49              0.0000000000
      6661        49  DOPC      HX             29.0447140682       27.6819410653       15.7639864189  MEMB      49              0.0000000000
      6662        49  DOPC      HY             28.2011426485       26.3243450537       16.5603754197  MEMB      49              0.0000000000
      6663        49  DOPC      O31            28.1422121158       26.2881902470       14.4705961012  MEMB      49              0.0000000000
      6664        49  DOPC      C31            27.6689395109       25.0488686109       14.4187918838  MEMB      49              0.0000000000
      6665        49  DOPC      O32            27.4390006325       24.3342769526       15.3832046725  MEMB      49              0.0000000000
      6666        49  DOPC      C32            27.4924036113       24.6623220058       12.9491571421  MEMB      49              0.0000000000
      6667        49  DOPC      H2X            26.4972492965       25.0703239950       12.6666899023  MEMB      49              0.0000000000
      6668        49  DOPC      H2Y            28.2616815348       25.1715599001       12.3353542086  MEMB      49              0.0000000000
      6669        49  DOPC      C23            32.9797035793       26.3257430746       12.1436925989  MEMB      49              0.0000000000
      6670        49  DOPC      H3R            33.7832154524       26.9183751068       11.6403089673  MEMB      49              0.0000000000
      6671        49  DOPC      H3S            32.1424706965       26.2308105965       11.4187207590  MEMB      49              0.0000000000
      6672        49  DOPC      C24            33.5906034608       24.9534643349       12.4515539503  MEMB      49              0.0000000000
      6673        49  DOPC      H4R            34.2415611586       25.0595961767       13.3471760418  MEMB      49              0.0000000000
      6674        49  DOPC      H4S            34.2153047579       24.7362631686       11.5667408017  MEMB      49              0.0000000000
      6675        49  DOPC      C25            32.6639658390       23.7483890327       12.7044998991  MEMB      49              0.0000000000
      6676        49  DOPC      H5R            32.0411896220       23.5506232223       11.8082099040  MEMB      49              0.0000000000
      6677        49  DOPC      H5S            31.9850657466       23.9565250844       13.5624385008  MEMB      49              0.0000000000
      6678        49  DOPC      C26            33.4865580487       22.5027250945       13.0854146078  MEMB      49              0.0000000000
      6679        49  DOPC      H6R            33.9810849685       22.6964215848       14.0622888646  MEMB      49              0.0000000000
      6680        49  DOPC      H6S            34.2990230052       22.3266635662       12.3647935544  MEMB      49              0.0000000000
      6681        49  DOPC      C27            32.7278345860       21.1795602821       13.1612557342  MEMB      49              0.0000000000
      6682        49  DOPC      H7R            31.6654616948       21.3368711619       13.4452919763  MEMB      49              0.0000000000
      6683        49  DOPC      H7S            33.1911719331       20.5675147334       13.9742689150  MEMB      49              0.0000000000
      6684        49  DOPC      C28            32.8849095231       20.3879331432       11.8521505893  MEMB      49              0.0000000000
      6685        49  DOPC      H8R            32.6336542208       19.3428710885       12.1114070073  MEMB      49              0.0000000000
      6686        49  DOPC      H8S            33.9461037714       20.3909655604       11.5207378033  MEMB      49              0.0000000000
      6687        49  DOPC      C29            31.9451652566       20.8866950593       10.7909664583  MEMB      49              0.0000000000
      6688        49  DOPC      H9R            30.9250648874       20.9765554860       11.1852670829  MEMB      49              0.0000000000
      6689        49  DOPC      C210           32.1819037166       21.2536158171        9.5136158201  MEMB      49              0.0000000000
      6690        49  DOPC      H10R           31.3303434704       21.6060612642        8.9147080960  MEMB      49              0.0000000000
      6691        49  DOPC      C211           33.4868348461       21.2672178180        8.7629917748  MEMB      49              0.0000000000
      6692        49  DOPC      H11R           34.2293480337       20.5933314519        9.2448842539  MEMB      49              0.0000000000
      6693        49  DOPC      H11S           33.8908227602       22.3023359959        8.7827190306  MEMB      49              0.0000000000
      6694        49  DOPC      C212           33.3675209361       20.8583281785        7.2780042068  MEMB      49              0.0000000000
      6695        49  DOPC      H12R           32.8665759594       19.8710689081        7.1864369618  MEMB      49              0.0000000000
      6696        49  DOPC      H12S           34.3903681396       20.7511544781        6.8488233444  MEMB      49              0.0000000000
      6697        49  DOPC      C213           32.6012878398       21.8724886880        6.4226493148  MEMB      49              0.0000000000
      6698        49  DOPC      H13R           33.1856983260       22.8158152521        6.3385765786  MEMB      49              0.0000000000
      6699        49  DOPC      H13S           31.6379804288       22.1312196293        6.9155314269  MEMB      49              0.0000000000
      6700        49  DOPC      C214           32.2720561376       21.3427826540        5.0227315254  MEMB      49              0.0000000000
      6701        49  DOPC      H14R           31.7229692288       20.3780310648        5.1116679181  MEMB      49              0.0000000000
      6702        49  DOPC      H14S           33.2039248727       21.1636300870        4.4429712125  MEMB      49              0.0000000000
      6703        49  DOPC      C215           31.3897456302       22.3446584950        4.2873947778  MEMB      49              0.0000000000
      6704        49  DOPC      H15R           31.9375465351       23.3112864259        4.1992979558  MEMB      49              0.0000000000
      6705        49  DOPC      H15S           30.4866844143       22.5272122987        4.9120679503  MEMB      49              0.0000000000
      6706        49  DOPC      C216           30.9375368570       21.9016661834        2.8940509811  MEMB      49              0.0000000000
      6707        49  DOPC      H16R           30.3329165194       20.9713770450        2.9629093769  MEMB      49              0.0000000000
      6708        49  DOPC      H16S           31.8326431102       21.6949658421        2.2749240834  MEMB      49              0.0000000000
      6709        49  DOPC      C217           30.0702635649       23.0061105430        2.2899951581  MEMB      49              0.0000000000
      6710        49  DOPC      H17R           30.6574125284       23.9548941456        2.2720061044  MEMB      49              0.0000000000
      6711        49  DOPC      H17S           29.2531240892       23.1316875397        3.0287952368  MEMB      49              0.0000000000
      6712        49  DOPC      C218           29.4323634379       22.7509046652        0.9214091922  MEMB      49              0.0000000000
      6713        49  DOPC      H18R           28.6440269669       23.4981643000        0.7089827244  MEMB      49              0.0000000000
      6714        49  DOPC      H18S           28.9422035785       21.7607471507        0.8742024777  MEMB      49              0.0000000000
      6715        49  DOPC      H18T           30.1749650780       22.8473069777        0.1072411437  MEMB      49              0.0000000000
      6716        49  DOPC      C33            27.4488558357       23.1537129737       12.6075765539  MEMB      49              0.0000000000
      6717        49  DOPC      H3X            26.8278005431       23.1802815493       11.7058863414  MEMB      49              0.0000000000
      6718        49  DOPC      H3Y            26.9184409918       22.5455746546       13.3685024289  MEMB      49              0.0000000000
      6719        49  DOPC      C34            28.6916489058       22.4561119761       12.0403282407  MEMB      49              0.0000000000
      6720        49  DOPC      H4X            28.4680975439       21.3702359829       11.9334262422  MEMB      49              0.0000000000
      6721        49  DOPC      H4Y            29.5436039359       22.5457778886       12.7537133447  MEMB      49              0.0000000000
      6722        49  DOPC      C35            29.1560268321       22.9974191228       10.6717282052  MEMB      49              0.0000000000
      6723        49  DOPC      H5X            29.8361107596       22.2667233670       10.2032644276  MEMB      49              0.0000000000
      6724        49  DOPC      H5Y            29.7309656222       23.9021634085       10.9525092438  MEMB      49              0.0000000000
      6725        49  DOPC      C36            28.1660352364       23.3414408008        9.5330068435  MEMB      49              0.0000000000
      6726        49  DOPC      H6X            27.5052443835       22.4707781763        9.3220503039  MEMB      49              0.0000000000
      6727        49  DOPC      H6Y            27.5202587708       24.1904751664        9.8463735364  MEMB      49              0.0000000000
      6728        49  DOPC      C37            28.9137944292       23.7506482105        8.2349470795  MEMB      49              0.0000000000
      6729        49  DOPC      H7X            29.4606801800       22.8615853511        7.8474149795  MEMB      49              0.0000000000
      6730        49  DOPC      H7Y            28.1785864523       24.0502500432        7.4567124573  MEMB      49              0.0000000000
      6731        49  DOPC      C38            29.8944822819       24.9308220270        8.4572362819  MEMB      49              0.0000000000
      6732        49  DOPC      H8X            30.4015131051       24.7946326969        9.4248625000  MEMB      49              0.0000000000
      6733        49  DOPC      H8Y            29.2836206346       25.8537165150        8.5693716809  MEMB      49              0.0000000000
      6734        49  DOPC      C39            31.0509961071       25.1364099046        7.5171522082  MEMB      49              0.0000000000
      6735        49  DOPC      H9X            32.0308561421       25.0742483557        8.0216026265  MEMB      49              0.0000000000
      6736        49  DOPC      C310           31.0092431306       25.3421348989        6.1912719034  MEMB      49              0.0000000000
      6737        49  DOPC      H10X           31.9605905132       25.4418453784        5.6433637030  MEMB      49              0.0000000000
      6738        49  DOPC      C311           29.7523426451       25.4069901109        5.3628217339  MEMB      49              0.0000000000
      6739        49  DOPC      H11X           28.8849304565       25.7497921329        5.9710359573  MEMB      49              0.0000000000
      6740        49  DOPC      H11Y           29.5122253453       24.3724568910        5.0433553754  MEMB      49              0.0000000000
      6741        49  DOPC      C312           29.8220645114       26.2820133459        4.0862635214  MEMB      49              0.0000000000
      6742        49  DOPC      H12X           30.8013830152       26.1576252168        3.5751351844  MEMB      49              0.0000000000
      6743        49  DOPC      H12Y           29.7183111100       27.3421097622        4.3890791059  MEMB      49              0.0000000000
      6744        49  DOPC      C313           28.6620241706       25.9497358757        3.1294152025  MEMB      49              0.0000000000
      6745        49  DOPC      H13X           28.4455255657       24.8767445571        3.2397933641  MEMB      49              0.0000000000
      6746        49  DOPC      H13Y           27.7689333178       26.4863808583        3.5068112708  MEMB      49              0.0000000000
      6747        49  DOPC      C314           28.8342468284       26.2133471067        1.6195242892  MEMB      49              0.0000000000
      6748        49  DOPC      H14X           29.5781677396       27.0249240541        1.4689096453  MEMB      49              0.0000000000
      6749        49  DOPC      H14Y           29.2682592667       25.3451738731        1.0952064750  MEMB      49              0.0000000000
      6750        49  DOPC      C315           27.5053937524       26.6167098505        0.9398224155  MEMB      49              0.0000000000
      6751        49  DOPC      H15X           27.7814949912       27.4063577435        0.2080477678  MEMB      49              0.0000000000
      6752        49  DOPC      H15Y           26.8418592803       27.0758915296        1.7028225164  MEMB      49              0.0000000000
      6753        49  DOPC      C316           26.7117623707       25.5460996635        0.1529763988  MEMB      49              0.0000000000
      6754        49  DOPC      H16X           27.1211389536       25.5234512479       -0.8828242932  MEMB      49              0.0000000000
      6755        49  DOPC      H16Y           26.8404163323       24.5317413314        0.5801509767  MEMB      49              0.0000000000
      6756        49  DOPC      C317           25.1939663091       25.8265629096        0.0347636041  MEMB      49              0.0000000000
      6757        49  DOPC      H17X           24.6436802390       25.2738572491        0.8242458266  MEMB      49              0.0000000000
      6758        49  DOPC      H17Y           24.9938782618       26.9036341976        0.2170239449  MEMB      49              0.0000000000
      6759        49  DOPC      C318           24.6114215409       25.4517785266       -1.3331356865  MEMB      49              0.0000000000
      6760        49  DOPC      H18X           23.5069376149       25.5670442096       -1.3524601211  MEMB      49              0.0000000000
      6761        49  DOPC      H18Y           25.0430505934       26.0971842627       -2.1279551609  MEMB      49              0.0000000000
      6762        49  DOPC      H18Z           24.8565009113       24.3953937380       -1.5738404758  MEMB      49              0.0000000000
      6763        50  DOPC      N              27.7036869012      -27.8779580284       21.2169828445  MEMB      50              0.0000000000
      6764        50  DOPC      C12            27.0239498953      -29.0558458501       20.5285893127  MEMB      50              0.0000000000
      6765        50  DOPC      H12A           26.5363183011      -29.6695281852       21.2706844127  MEMB      50              0.0000000000
      6766        50  DOPC      H12B           27.7912229601      -29.6513780984       20.0369301648  MEMB      50              0.0000000000
      6767        50  DOPC      C13            28.3744507046      -28.2741183775       22.4783502126  MEMB      50              0.0000000000
      6768        50  DOPC      H13A           28.8390297613      -27.4083926991       22.9482367658  MEMB      50              0.0000000000
      6769        50  DOPC      H13B           27.6353107703      -28.6283000247       23.1978509936  MEMB      50              0.0000000000
      6770        50  DOPC      H13C           29.1516997763      -28.9970379677       22.2746632968  MEMB      50              0.0000000000
      6771        50  DOPC      C14            26.7168902918      -26.8254027012       21.5420506368  MEMB      50              0.0000000000
      6772        50  DOPC      H14A           26.0367755687      -27.1335062847       22.3302046658  MEMB      50              0.0000000000
      6773        50  DOPC      H14B           27.2069089656      -25.9184802231       21.8702310854  MEMB      50              0.0000000000
      6774        50  DOPC      H14C           26.1500040404      -26.5971676255       20.6429717167  MEMB      50              0.0000000000
      6775        50  DOPC      C15            28.7168176958      -27.3311795388       20.2783328668  MEMB      50              0.0000000000
      6776        50  DOPC      H15A           29.4148447289      -28.1154836301       20.0097542934  MEMB      50              0.0000000000
      6777        50  DOPC      H15B           29.2547048596      -26.5004077396       20.7024429420  MEMB      50              0.0000000000
      6778        50  DOPC      H15C           28.2121444736      -27.0546070050       19.3481589019  MEMB      50              0.0000000000
      6779        50  DOPC      C11            25.9936327072      -28.7620597828       19.4073280475  MEMB      50              0.0000000000
      6780        50  DOPC      H11A           25.5532615914      -29.7285690995       19.0875494713  MEMB      50              0.0000000000
      6781        50  DOPC      H11B           25.1436287739      -28.1717803193       19.8093686195  MEMB      50              0.0000000000
      6782        50  DOPC      P              27.5527448531      -28.6503137273       17.2228702926  MEMB      50              0.0000000000
      6783        50  DOPC      O13            28.3684823921      -29.6761073663       17.9122115031  MEMB      50              0.0000000000
      6784        50  DOPC      O14            28.2856622892      -27.4938622669       16.6533750276  MEMB      50              0.0000000000
      6785        50  DOPC      O12            26.5587299925      -28.0576862205       18.3138555764  MEMB      50              0.0000000000
      6786        50  DOPC      O11            26.5956470928      -29.3814116958       16.1500121569  MEMB      50              0.0000000000
      6787        50  DOPC      C1             26.0525292891      -30.6701646506       16.5172771043  MEMB      50              0.0000000000
      6788        50  DOPC      HA             25.3137163651      -30.5583403851       17.3275380802  MEMB      50              0.0000000000
      6789        50  DOPC      HB             26.8420087625      -31.3187057376       16.9414628245  MEMB      50              0.0000000000
      6790        50  DOPC      C2             25.3448563038      -31.5308319274       15.3973249362  MEMB      50              0.0000000000
      6791        50  DOPC      HS             25.7135106385      -32.5731213633       15.5133340632  MEMB      50              0.0000000000
      6792        50  DOPC      O21            25.6501203002      -31.0396257302       14.0826578451  MEMB      50              0.0000000000
      6793        50  DOPC      C21            25.1281652305      -31.5994973991       13.0097994415  MEMB      50              0.0000000000
      6794        50  DOPC      O22            24.4487574361      -32.6107211702       12.9555774877  MEMB      50              0.0000000000
      6795        50  DOPC      C22            25.6584765062      -30.8302858189       11.8103383900  MEMB      50              0.0000000000
      6796        50  DOPC      H2R            25.7877121627      -29.7614038060       12.0853982448  MEMB      50              0.0000000000
      6797        50  DOPC      H2S            24.9295984717      -30.8988595097       10.9830708604  MEMB      50              0.0000000000
      6798        50  DOPC      C3             23.8051885264      -31.5631933740       15.6241042107  MEMB      50              0.0000000000
      6799        50  DOPC      HX             23.5870282193      -31.8600442748       16.6730125727  MEMB      50              0.0000000000
      6800        50  DOPC      HY             23.3632455671      -32.3637385030       14.9991205214  MEMB      50              0.0000000000
      6801        50  DOPC      O31            23.2281902320      -30.3013030429       15.2601053483  MEMB      50              0.0000000000
      6802        50  DOPC      C31            23.1197182057      -29.4098088509       16.2555670398  MEMB      50              0.0000000000
      6803        50  DOPC      O32            23.1836252243      -29.6787926992       17.4414930796  MEMB      50              0.0000000000
      6804        50  DOPC      C32            22.9667667091      -28.0181875564       15.6242380187  MEMB      50              0.0000000000
      6805        50  DOPC      H2X            22.1859591272      -28.0801061870       14.8384027281  MEMB      50              0.0000000000
      6806        50  DOPC      H2Y            22.6142104620      -27.3077942624       16.3972716430  MEMB      50              0.0000000000
      6807        50  DOPC      C23            27.0121983470      -31.4621448485       11.4437020164  MEMB      50              0.0000000000
      6808        50  DOPC      H3R            26.8888446871      -32.5490266218       11.2663467659  MEMB      50              0.0000000000
      6809        50  DOPC      H3S            27.7152408445      -31.3470104378       12.3077002928  MEMB      50              0.0000000000
      6810        50  DOPC      C24            27.6655432786      -30.9057231163       10.1873205418  MEMB      50              0.0000000000
      6811        50  DOPC      H4R            28.6721904952      -31.3770375523       10.1038254683  MEMB      50              0.0000000000
      6812        50  DOPC      H4S            27.8302558647      -29.8137722830       10.3370405576  MEMB      50              0.0000000000
      6813        50  DOPC      C25            26.8971638287      -31.1017670236        8.8564014186  MEMB      50              0.0000000000
      6814        50  DOPC      H5R            27.6668736538      -31.1771532380        8.0539527213  MEMB      50              0.0000000000
      6815        50  DOPC      H5S            26.3264997080      -30.1647348385        8.6834725005  MEMB      50              0.0000000000
      6816        50  DOPC      C26            25.9184806504      -32.2886762044        8.6802674355  MEMB      50              0.0000000000
      6817        50  DOPC      H6R            25.7942696567      -32.8779349727        9.6127835963  MEMB      50              0.0000000000
      6818        50  DOPC      H6S            26.3589048921      -32.9990963295        7.9433457234  MEMB      50              0.0000000000
      6819        50  DOPC      C27            24.5021172333      -31.8747040066        8.1914088064  MEMB      50              0.0000000000
      6820        50  DOPC      H7R            23.9582921840      -31.4026221369        9.0397003022  MEMB      50              0.0000000000
      6821        50  DOPC      H7S            23.9359392705      -32.7837478924        7.9067235312  MEMB      50              0.0000000000
      6822        50  DOPC      C28            24.3966264505      -30.9570728335        6.9499592936  MEMB      50              0.0000000000
      6823        50  DOPC      H8R            24.6647116422      -29.9222623712        7.2578018110  MEMB      50              0.0000000000
      6824        50  DOPC      H8S            23.3289855472      -30.9308201842        6.6391594146  MEMB      50              0.0000000000
      6825        50  DOPC      C29            25.2748238643      -31.4383590647        5.8233310129  MEMB      50              0.0000000000
      6826        50  DOPC      H9R            26.3197273086      -31.5865901439        6.1436017412  MEMB      50              0.0000000000
      6827        50  DOPC      C210           24.9766063326      -31.6618472126        4.5238774159  MEMB      50              0.0000000000
      6828        50  DOPC      H10R           25.7850990231      -32.0814752227        3.9079967034  MEMB      50              0.0000000000
      6829        50  DOPC      C211           23.6672405873      -31.5034849288        3.7641319854  MEMB      50              0.0000000000
      6830        50  DOPC      H11R           22.7926909616      -31.7486163290        4.3992117491  MEMB      50              0.0000000000
      6831        50  DOPC      H11S           23.6788816789      -32.2225480964        2.9122909556  MEMB      50              0.0000000000
      6832        50  DOPC      C212           23.5319019281      -30.0695745327        3.1925490695  MEMB      50              0.0000000000
      6833        50  DOPC      H12R           24.4011645853      -29.9472343915        2.5241343191  MEMB      50              0.0000000000
      6834        50  DOPC      H12S           23.6146987946      -29.3366255515        4.0248606861  MEMB      50              0.0000000000
      6835        50  DOPC      C213           22.3453181666      -29.6360439558        2.3042148865  MEMB      50              0.0000000000
      6836        50  DOPC      H13R           21.3539602953      -29.8664381597        2.7076697844  MEMB      50              0.0000000000
      6837        50  DOPC      H13S           22.4117328429      -30.1483859339        1.3218040274  MEMB      50              0.0000000000
      6838        50  DOPC      C214           22.3360839964      -28.1034889713        2.1511252296  MEMB      50              0.0000000000
      6839        50  DOPC      H14R           23.3849864453      -27.7472002185        2.2048574318  MEMB      50              0.0000000000
      6840        50  DOPC      H14S           21.8310494394      -27.6323459628        3.0033317351  MEMB      50              0.0000000000
      6841        50  DOPC      C215           21.7750618922      -27.5782360154        0.8403853100  MEMB      50              0.0000000000
      6842        50  DOPC      H15R           21.9639068752      -26.4776126721        0.8253235491  MEMB      50              0.0000000000
      6843        50  DOPC      H15S           20.6856234720      -27.7216831923        0.6852528177  MEMB      50              0.0000000000
      6844        50  DOPC      C216           22.5670382251      -28.2021507953       -0.2926797015  MEMB      50              0.0000000000
      6845        50  DOPC      H16R           22.1631492310      -29.2003275243       -0.5715613179  MEMB      50              0.0000000000
      6846        50  DOPC      H16S           23.5953460906      -28.3146722966        0.0908212640  MEMB      50              0.0000000000
      6847        50  DOPC      C217           22.5287121935      -27.2727728282       -1.4715376533  MEMB      50              0.0000000000
      6848        50  DOPC      H17R           23.0315450463      -26.3131272057       -1.2393192219  MEMB      50              0.0000000000
      6849        50  DOPC      H17S           21.4419836536      -27.0871606743       -1.4722661020  MEMB      50              0.0000000000
      6850        50  DOPC      C218           22.9752016043      -27.8399596924       -2.8161947634  MEMB      50              0.0000000000
      6851        50  DOPC      H18R           24.0403690747      -28.1400812272       -2.8098828855  MEMB      50              0.0000000000
      6852        50  DOPC      H18S           22.8177032531      -27.0689445440       -3.6049948297  MEMB      50              0.0000000000
      6853        50  DOPC      H18T           22.3507346227      -28.7233022105       -3.0738823120  MEMB      50              0.0000000000
      6854        50  DOPC      C33            24.3165986636      -27.5655931872       15.0097493918  MEMB      50              0.0000000000
      6855        50  DOPC      H3X            24.8248503936      -28.4420049422       14.5402679419  MEMB      50              0.0000000000
      6856        50  DOPC      H3Y            24.9812058693      -27.2062769052       15.8292237007  MEMB      50              0.0000000000
      6857        50  DOPC      C34            24.2167759860      -26.4864179809       13.9225653539  MEMB      50              0.0000000000
      6858        50  DOPC      H4X            23.8929840989      -25.5307346120       14.3880718037  MEMB      50              0.0000000000
      6859        50  DOPC      H4Y            23.4413438214      -26.7849362742       13.1844526810  MEMB      50              0.0000000000
      6860        50  DOPC      C35            25.5519180745      -26.2641388247       13.1887333038  MEMB      50              0.0000000000
      6861        50  DOPC      H5X            26.3436554051      -26.8868556897       13.6688832893  MEMB      50              0.0000000000
      6862        50  DOPC      H5Y            25.8687098752      -25.2043390153       13.2989157653  MEMB      50              0.0000000000
      6863        50  DOPC      C36            25.4694948370      -26.6044684770       11.6940597232  MEMB      50              0.0000000000
      6864        50  DOPC      H6X            25.1819309435      -27.6755679235       11.5947052119  MEMB      50              0.0000000000
      6865        50  DOPC      H6Y            24.6825714710      -25.9874031958       11.2091345832  MEMB      50              0.0000000000
      6866        50  DOPC      C37            26.8021469978      -26.3940834018       10.9654359781  MEMB      50              0.0000000000
      6867        50  DOPC      H7X            27.1355704059      -25.3363855405       11.0565712621  MEMB      50              0.0000000000
      6868        50  DOPC      H7Y            27.5554821803      -27.0232909972       11.4972519977  MEMB      50              0.0000000000
      6869        50  DOPC      C38            26.7079160030      -26.7829510878        9.4816198784  MEMB      50              0.0000000000
      6870        50  DOPC      H8X            26.3187498349      -25.9209297196        8.8956691351  MEMB      50              0.0000000000
      6871        50  DOPC      H8Y            25.9720910109      -27.6107091316        9.3771103608  MEMB      50              0.0000000000
      6872        50  DOPC      C39            28.0417032963      -27.2548238409        8.9816466833  MEMB      50              0.0000000000
      6873        50  DOPC      H9X            28.7487963547      -27.5669862547        9.7656651239  MEMB      50              0.0000000000
      6874        50  DOPC      C310           28.4340342628      -27.3458745549        7.7075737499  MEMB      50              0.0000000000
      6875        50  DOPC      H10X           29.4619654558      -27.6882014773        7.5411444923  MEMB      50              0.0000000000
      6876        50  DOPC      C311           27.6516144803      -27.0011489826        6.4616801200  MEMB      50              0.0000000000
      6877        50  DOPC      H11X           28.3096660552      -26.4205491670        5.7779339120  MEMB      50              0.0000000000
      6878        50  DOPC      H11Y           26.7970998161      -26.3300457666        6.6990533936  MEMB      50              0.0000000000
      6879        50  DOPC      C312           27.0793665212      -28.1944272613        5.6581928662  MEMB      50              0.0000000000
      6880        50  DOPC      H12X           26.6757900034      -27.7947137090        4.6995912003  MEMB      50              0.0000000000
      6881        50  DOPC      H12Y           26.2154548091      -28.6287179801        6.2063499239  MEMB      50              0.0000000000
      6882        50  DOPC      C313           28.0657245995      -29.3302096501        5.3222274008  MEMB      50              0.0000000000
      6883        50  DOPC      H13X           28.1130162656      -30.0318684787        6.1845652407  MEMB      50              0.0000000000
      6884        50  DOPC      H13Y           27.6562607914      -29.9026170913        4.4568771577  MEMB      50              0.0000000000
      6885        50  DOPC      C314           29.4986862001      -28.8844744404        4.9973001735  MEMB      50              0.0000000000
      6886        50  DOPC      H14X           30.0052448948      -28.4775465643        5.8881200843  MEMB      50              0.0000000000
      6887        50  DOPC      H14Y           30.1028681027      -29.7771459666        4.7373278750  MEMB      50              0.0000000000
      6888        50  DOPC      C315           29.6171591403      -27.8809772490        3.8489291210  MEMB      50              0.0000000000
      6889        50  DOPC      H15X           30.2023281338      -26.9956025215        4.1862320166  MEMB      50              0.0000000000
      6890        50  DOPC      H15Y           28.6211840713      -27.5083723920        3.5305864056  MEMB      50              0.0000000000
      6891        50  DOPC      C316           30.3342596026      -28.5708538463        2.6946908853  MEMB      50              0.0000000000
      6892        50  DOPC      H16X           31.3513195436      -28.8570121734        3.0520034910  MEMB      50              0.0000000000
      6893        50  DOPC      H16Y           29.7855951259      -29.5146674294        2.4612020295  MEMB      50              0.0000000000
      6894        50  DOPC      C317           30.4614116894      -27.7268877869        1.4319852311  MEMB      50              0.0000000000
      6895        50  DOPC      H17X           30.6047440424      -26.6518716660        1.6796864025  MEMB      50              0.0000000000
      6896        50  DOPC      H17Y           31.3717845712      -28.0880149211        0.9052947966  MEMB      50              0.0000000000
      6897        50  DOPC      C318           29.2702595799      -27.9203561861        0.5058057389  MEMB      50              0.0000000000
      6898        50  DOPC      H18X           29.5030132366      -27.8525877648       -0.5652081102  MEMB      50              0.0000000000
      6899        50  DOPC      H18Y           28.9053214060      -28.9514858084        0.6384910193  MEMB      50              0.0000000000
      6900        50  DOPC      H18Z           28.4688651380      -27.1887802098        0.7286433895  MEMB      50              0.0000000000
      6901        51  DOPC      N              -1.8668687938       -0.9653104649      -20.0590602303  MEMB      51              0.0000000000
      6902        51  DOPC      C12            -2.1151537625       -0.5857707397      -18.6055767575  MEMB      51              0.0000000000
      6903        51  DOPC      H12A           -2.4365612624       -1.4703871110      -18.0722286168  MEMB      51              0.0000000000
      6904        51  DOPC      H12B           -2.9222548768        0.1398356678      -18.5809766679  MEMB      51              0.0000000000
      6905        51  DOPC      C13            -1.1518515446        0.1476643900      -20.7746474514  MEMB      51              0.0000000000
      6906        51  DOPC      H13A           -0.1517569812        0.2561849867      -20.3470074890  MEMB      51              0.0000000000
      6907        51  DOPC      H13B           -1.0157896324       -0.0731224542      -21.8285391737  MEMB      51              0.0000000000
      6908        51  DOPC      H13C           -1.6143708289        1.1113219995      -20.6547122982  MEMB      51              0.0000000000
      6909        51  DOPC      C14            -3.1526940712       -1.2562774839      -20.7626353499  MEMB      51              0.0000000000
      6910        51  DOPC      H14A           -3.8402996284       -0.4159403019      -20.6977303004  MEMB      51              0.0000000000
      6911        51  DOPC      H14B           -2.9472143583       -1.4708310501      -21.8102580769  MEMB      51              0.0000000000
      6912        51  DOPC      H14C           -3.6319080439       -2.1260313942      -20.3311961112  MEMB      51              0.0000000000
      6913        51  DOPC      C15            -0.9841870289       -2.1803014894      -20.1411316199  MEMB      51              0.0000000000
      6914        51  DOPC      H15A           -0.1487418581       -2.0647711232      -19.4449947342  MEMB      51              0.0000000000
      6915        51  DOPC      H15B           -0.5362070946       -2.2662005091      -21.1252496950  MEMB      51              0.0000000000
      6916        51  DOPC      H15C           -1.5084205110       -3.0799151294      -19.8698967919  MEMB      51              0.0000000000
      6917        51  DOPC      C11            -0.9328275905       -0.0020437441      -17.7841504159  MEMB      51              0.0000000000
      6918        51  DOPC      H11A           -0.6937596959        1.0206444695      -18.1600469463  MEMB      51              0.0000000000
      6919        51  DOPC      H11B           -1.2682992554        0.1193327704      -16.7278685634  MEMB      51              0.0000000000
      6920        51  DOPC      P               1.5902369993       -0.4540853437      -18.4301454919  MEMB      51              0.0000000000
      6921        51  DOPC      O13             1.4095208133        0.6559847419      -19.4001750980  MEMB      51              0.0000000000
      6922        51  DOPC      O14             2.2667090636       -1.6807494814      -18.8951480677  MEMB      51              0.0000000000
      6923        51  DOPC      O12             0.1882753759       -0.8792389441      -17.8006862149  MEMB      51              0.0000000000
      6924        51  DOPC      O11             2.3825640396        0.1061182815      -17.2147715151  MEMB      51              0.0000000000
      6925        51  DOPC      C1              3.4248813854        1.0585556512      -17.4147521228  MEMB      51              0.0000000000
      6926        51  DOPC      HA              3.0437703853        1.9904875769      -17.9013717022  MEMB      51              0.0000000000
      6927        51  DOPC      HB              4.2288849884        0.6461781368      -18.0676652086  MEMB      51              0.0000000000
      6928        51  DOPC      C2              4.0221630277        1.4373724137      -16.0357171903  MEMB      51              0.0000000000
      6929        51  DOPC      HS              4.9780868321        1.9808609715      -16.2132226764  MEMB      51              0.0000000000
      6930        51  DOPC      O21             4.2720806664        0.3137694447      -15.1751572254  MEMB      51              0.0000000000
      6931        51  DOPC      C21             4.8847073467       -0.7074628722      -15.7126345822  MEMB      51              0.0000000000
      6932        51  DOPC      O22             5.6689931891       -0.6764145666      -16.6443761474  MEMB      51              0.0000000000
      6933        51  DOPC      C22             4.4621179067       -1.9895762083      -15.0084317864  MEMB      51              0.0000000000
      6934        51  DOPC      H2R             4.9368322139       -2.0202383261      -14.0091854030  MEMB      51              0.0000000000
      6935        51  DOPC      H2S             4.8538213230       -2.8247353617      -15.6245287595  MEMB      51              0.0000000000
      6936        51  DOPC      C3              3.0611772785        2.4126858852      -15.3027501861  MEMB      51              0.0000000000
      6937        51  DOPC      HX              3.0205768428        3.3319831763      -15.9296604176  MEMB      51              0.0000000000
      6938        51  DOPC      HY              3.5451732414        2.7001431910      -14.3454180960  MEMB      51              0.0000000000
      6939        51  DOPC      O31             1.6894061836        1.9662637584      -15.1180599400  MEMB      51              0.0000000000
      6940        51  DOPC      C31             1.4216621228        1.2033362869      -14.0619518338  MEMB      51              0.0000000000
      6941        51  DOPC      O32             2.2361912076        0.7184105178      -13.3067933232  MEMB      51              0.0000000000
      6942        51  DOPC      C32            -0.1022450128        1.1807844831      -13.8083928111  MEMB      51              0.0000000000
      6943        51  DOPC      H2X            -0.5183217046        2.1595140753      -14.1225219697  MEMB      51              0.0000000000
      6944        51  DOPC      H2Y            -0.5128622118        0.3868618976      -14.4638701742  MEMB      51              0.0000000000
      6945        51  DOPC      C23             2.9264020759       -2.0499814444      -14.9164088688  MEMB      51              0.0000000000
      6946        51  DOPC      H3R             2.4749024298       -1.7198868352      -15.8772900976  MEMB      51              0.0000000000
      6947        51  DOPC      H3S             2.5640926143       -1.3766757417      -14.1221639845  MEMB      51              0.0000000000
      6948        51  DOPC      C24             2.3721923396       -3.4390815476      -14.6797231374  MEMB      51              0.0000000000
      6949        51  DOPC      H4R             2.6710060444       -3.9822620961      -15.5816523784  MEMB      51              0.0000000000
      6950        51  DOPC      H4S             1.2608295187       -3.4014104105      -14.6480677792  MEMB      51              0.0000000000
      6951        51  DOPC      C25             2.9252998217       -4.1293264119      -13.4400455715  MEMB      51              0.0000000000
      6952        51  DOPC      H5R             4.0374580974       -4.1273991496      -13.4541193229  MEMB      51              0.0000000000
      6953        51  DOPC      H5S             2.5906919676       -5.1886474849      -13.4889434613  MEMB      51              0.0000000000
      6954        51  DOPC      C26             2.4276068227       -3.5035116935      -12.1308022432  MEMB      51              0.0000000000
      6955        51  DOPC      H6R             2.6234302491       -2.4078064287      -12.1184446907  MEMB      51              0.0000000000
      6956        51  DOPC      H6S             3.0050068088       -3.9453959003      -11.2882289348  MEMB      51              0.0000000000
      6957        51  DOPC      C27             0.9354032227       -3.7899779080      -11.9020502909  MEMB      51              0.0000000000
      6958        51  DOPC      H7R             0.7335590546       -4.8279121858      -12.2500493252  MEMB      51              0.0000000000
      6959        51  DOPC      H7S             0.3274473140       -3.1114308138      -12.5413406246  MEMB      51              0.0000000000
      6960        51  DOPC      C28             0.4944800951       -3.7115043370      -10.4273044275  MEMB      51              0.0000000000
      6961        51  DOPC      H8R             1.1592798019       -4.3599316880       -9.8133241386  MEMB      51              0.0000000000
      6962        51  DOPC      H8S            -0.5324045212       -4.1363772009      -10.3599493662  MEMB      51              0.0000000000
      6963        51  DOPC      C29             0.4883793478       -2.2853377342       -9.9434400529  MEMB      51              0.0000000000
      6964        51  DOPC      H9R             0.3490686503       -1.5416773957      -10.7378322059  MEMB      51              0.0000000000
      6965        51  DOPC      C210            0.6651450701       -1.8510161341       -8.6844569045  MEMB      51              0.0000000000
      6966        51  DOPC      H10R            0.6360125799       -0.7669260563       -8.4897276443  MEMB      51              0.0000000000
      6967        51  DOPC      C211            0.9084263658       -2.7146556190       -7.4757133405  MEMB      51              0.0000000000
      6968        51  DOPC      H11R            0.2258677999       -3.5943076705       -7.4792359091  MEMB      51              0.0000000000
      6969        51  DOPC      H11S            0.6530906853       -2.1406572691       -6.5586038381  MEMB      51              0.0000000000
      6970        51  DOPC      C212            2.3641615346       -3.2138106216       -7.3711741999  MEMB      51              0.0000000000
      6971        51  DOPC      H12R            2.9926212127       -2.8350000531       -8.2092004011  MEMB      51              0.0000000000
      6972        51  DOPC      H12S            2.3499242896       -4.3247742810       -7.4662290756  MEMB      51              0.0000000000
      6973        51  DOPC      C213            3.0563724713       -2.8424359709       -6.0481286055  MEMB      51              0.0000000000
      6974        51  DOPC      H13R            4.0472292413       -3.3491229031       -6.0374388148  MEMB      51              0.0000000000
      6975        51  DOPC      H13S            2.4705284294       -3.2606885106       -5.2006779440  MEMB      51              0.0000000000
      6976        51  DOPC      C214            3.2607449692       -1.3278341108       -5.8318199339  MEMB      51              0.0000000000
      6977        51  DOPC      H14R            2.8818779443       -0.7572389187       -6.7058846848  MEMB      51              0.0000000000
      6978        51  DOPC      H14S            4.3437758048       -1.1126951509       -5.7593331764  MEMB      51              0.0000000000
      6979        51  DOPC      C215            2.6403054340       -0.8145067490       -4.5252260101  MEMB      51              0.0000000000
      6980        51  DOPC      H15R            3.1093431987       -1.3716045028       -3.6821258240  MEMB      51              0.0000000000
      6981        51  DOPC      H15S            1.5519616772       -1.0448538061       -4.5212991003  MEMB      51              0.0000000000
      6982        51  DOPC      C216            2.8214506822        0.6925477865       -4.2723302004  MEMB      51              0.0000000000
      6983        51  DOPC      H16R            2.5857708283        0.9003230247       -3.2059118840  MEMB      51              0.0000000000
      6984        51  DOPC      H16S            2.1012874852        1.2368231424       -4.9122334615  MEMB      51              0.0000000000
      6985        51  DOPC      C217            4.2073782811        1.2653617078       -4.5713279926  MEMB      51              0.0000000000
      6986        51  DOPC      H17R            4.3250483168        1.3313752923       -5.6776037895  MEMB      51              0.0000000000
      6987        51  DOPC      H17S            4.9717774707        0.5624840306       -4.1672233475  MEMB      51              0.0000000000
      6988        51  DOPC      C218            4.4430681455        2.6441198193       -3.9578529283  MEMB      51              0.0000000000
      6989        51  DOPC      H18R            4.3328638684        2.5773419721       -2.8546710927  MEMB      51              0.0000000000
      6990        51  DOPC      H18S            3.7139836391        3.3840230524       -4.3502438186  MEMB      51              0.0000000000
      6991        51  DOPC      H18T            5.4667027877        3.0174424784       -4.1705895035  MEMB      51              0.0000000000
      6992        51  DOPC      C33            -0.5080176498        0.8752662562      -12.3254162560  MEMB      51              0.0000000000
      6993        51  DOPC      H3X            -0.1866169578        1.6953994014      -11.6461066568  MEMB      51              0.0000000000
      6994        51  DOPC      H3Y             0.0361627672       -0.0413755793      -12.0188974432  MEMB      51              0.0000000000
      6995        51  DOPC      C34            -2.0251151949        0.6351437497      -12.1659407686  MEMB      51              0.0000000000
      6996        51  DOPC      H4X            -2.3508111083        0.0373652681      -13.0496609524  MEMB      51              0.0000000000
      6997        51  DOPC      H4Y            -2.5490981928        1.6154976209      -12.2109868866  MEMB      51              0.0000000000
      6998        51  DOPC      C35            -2.5204391023       -0.1492045985      -10.9214710899  MEMB      51              0.0000000000
      6999        51  DOPC      H5X            -2.0127450384       -1.1347916193      -10.8519062158  MEMB      51              0.0000000000
      7000        51  DOPC      H5Y            -3.6025566430       -0.3649841548      -11.0774094460  MEMB      51              0.0000000000
      7001        51  DOPC      C36            -2.4195366531        0.5738310753       -9.5675579051  MEMB      51              0.0000000000
      7002        51  DOPC      H6X            -1.4007146180        0.3855580335       -9.1704453842  MEMB      51              0.0000000000
      7003        51  DOPC      H6Y            -2.5480578614        1.6694887326       -9.7115882362  MEMB      51              0.0000000000
      7004        51  DOPC      C37            -3.4700360385        0.1122196175       -8.5297337746  MEMB      51              0.0000000000
      7005        51  DOPC      H7X            -4.4812454284        0.3531209497       -8.9260066428  MEMB      51              0.0000000000
      7006        51  DOPC      H7Y            -3.4288898161       -0.9925916321       -8.4077971300  MEMB      51              0.0000000000
      7007        51  DOPC      C38            -3.3346628879        0.8024070379       -7.1553041549  MEMB      51              0.0000000000
      7008        51  DOPC      H8X            -4.3109219933        0.7483437991       -6.6233563864  MEMB      51              0.0000000000
      7009        51  DOPC      H8Y            -3.1275828372        1.8847521149       -7.3146461723  MEMB      51              0.0000000000
      7010        51  DOPC      C39            -2.2863630598        0.1581749975       -6.2899500538  MEMB      51              0.0000000000
      7011        51  DOPC      H9X            -2.6254809955       -0.7122931891       -5.7058523601  MEMB      51              0.0000000000
      7012        51  DOPC      C310           -1.0055153684        0.5369252542       -6.1853202335  MEMB      51              0.0000000000
      7013        51  DOPC      H10X           -0.3632035242       -0.0007965416       -5.4690510608  MEMB      51              0.0000000000
      7014        51  DOPC      C311           -0.3271001515        1.6817831060       -6.9021012726  MEMB      51              0.0000000000
      7015        51  DOPC      H11X           -0.7159485007        1.8294233234       -7.9294248331  MEMB      51              0.0000000000
      7016        51  DOPC      H11Y            0.7531800680        1.4403157738       -6.9993028066  MEMB      51              0.0000000000
      7017        51  DOPC      C312           -0.4495710194        3.0315220205       -6.1740187222  MEMB      51              0.0000000000
      7018        51  DOPC      H12X           -1.5155218126        3.3357715035       -6.1168347602  MEMB      51              0.0000000000
      7019        51  DOPC      H12Y            0.0901642633        3.8066072005       -6.7698349298  MEMB      51              0.0000000000
      7020        51  DOPC      C313            0.1609860249        2.9401474864       -4.7782423263  MEMB      51              0.0000000000
      7021        51  DOPC      H13X            0.1672847153        1.8803117511       -4.4520881710  MEMB      51              0.0000000000
      7022        51  DOPC      H13Y            1.2313931298        3.2464289243       -4.8544490050  MEMB      51              0.0000000000
      7023        51  DOPC      C314           -0.4810627531        3.7054862468       -3.6141246973  MEMB      51              0.0000000000
      7024        51  DOPC      H14X            0.1577373510        3.3649165722       -2.8049718023  MEMB      51              0.0000000000
      7025        51  DOPC      H14Y           -0.3270771115        4.7881246050       -3.6792002945  MEMB      51              0.0000000000
      7026        51  DOPC      C315           -1.9214047844        3.4562864136       -3.1366160146  MEMB      51              0.0000000000
      7027        51  DOPC      H15X           -2.2264088832        2.4000436098       -3.3199257836  MEMB      51              0.0000000000
      7028        51  DOPC      H15Y           -2.5946106857        4.1186098064       -3.7243365600  MEMB      51              0.0000000000
      7029        51  DOPC      C316           -2.1348342913        3.7828356464       -1.6285881090  MEMB      51              0.0000000000
      7030        51  DOPC      H16X           -3.2132695344        3.9255245533       -1.4516990124  MEMB      51              0.0000000000
      7031        51  DOPC      H16Y           -1.9017591367        2.8686770365       -1.0436401634  MEMB      51              0.0000000000
      7032        51  DOPC      C317           -1.2857025466        4.9332480407       -1.0230475447  MEMB      51              0.0000000000
      7033        51  DOPC      H17X           -1.0973528899        4.7119388816        0.0533668746  MEMB      51              0.0000000000
      7034        51  DOPC      H17Y           -0.2737031167        4.9351328033       -1.4753691285  MEMB      51              0.0000000000
      7035        51  DOPC      C318           -1.8097669115        6.3686175262       -1.1300629049  MEMB      51              0.0000000000
      7036        51  DOPC      H18X           -1.0215011646        7.0356769949       -0.7425218522  MEMB      51              0.0000000000
      7037        51  DOPC      H18Y           -2.0449113693        6.6460137170       -2.1795468205  MEMB      51              0.0000000000
      7038        51  DOPC      H18Z           -2.6808105273        6.5814888311       -0.4839325419  MEMB      51              0.0000000000
      7039        52  DOPC      N              -3.4073191399        7.2385965290      -21.5662182661  MEMB      52              0.0000000000
      7040        52  DOPC      C12            -2.4446659175        7.4956040512      -20.4152564220  MEMB      52              0.0000000000
      7041        52  DOPC      H12A           -1.6537004659        8.1518597281      -20.7440625177  MEMB      52              0.0000000000
      7042        52  DOPC      H12B           -1.9562700672        6.5493056114      -20.1688052167  MEMB      52              0.0000000000
      7043        52  DOPC      C13            -4.2177998373        6.0256071890      -21.2235898182  MEMB      52              0.0000000000
      7044        52  DOPC      H13A           -4.9181944680        5.7626272464      -21.9934776633  MEMB      52              0.0000000000
      7045        52  DOPC      H13B           -3.5758379792        5.1608237355      -21.0841717048  MEMB      52              0.0000000000
      7046        52  DOPC      H13C           -4.7319360198        6.1871534733      -20.2713501083  MEMB      52              0.0000000000
      7047        52  DOPC      C14            -2.5992674191        6.9429381576      -22.7589600643  MEMB      52              0.0000000000
      7048        52  DOPC      H14A           -1.8128527059        7.6632453433      -22.9334133399  MEMB      52              0.0000000000
      7049        52  DOPC      H14B           -2.1243099499        5.9690499238      -22.6164413313  MEMB      52              0.0000000000
      7050        52  DOPC      H14C           -3.1877558712        6.8211338591      -23.6638516265  MEMB      52              0.0000000000
      7051        52  DOPC      C15            -4.3796008139        8.3464410804      -21.8043240331  MEMB      52              0.0000000000
      7052        52  DOPC      H15A           -5.2112842639        7.9849512072      -22.4029767765  MEMB      52              0.0000000000
      7053        52  DOPC      H15B           -3.9392283292        9.2093415266      -22.2833678927  MEMB      52              0.0000000000
      7054        52  DOPC      H15C           -4.7710751135        8.6369802905      -20.8360417464  MEMB      52              0.0000000000
      7055        52  DOPC      C11            -3.0463599891        8.0290108513      -19.1046376240  MEMB      52              0.0000000000
      7056        52  DOPC      H11A           -2.2294151980        8.1142090241      -18.3521314862  MEMB      52              0.0000000000
      7057        52  DOPC      H11B           -3.4834649535        9.0370157971      -19.2703283149  MEMB      52              0.0000000000
      7058        52  DOPC      P              -4.4821850300        6.9464621949      -17.1524870300  MEMB      52              0.0000000000
      7059        52  DOPC      O13            -3.2945633479        6.6409342762      -16.3322465555  MEMB      52              0.0000000000
      7060        52  DOPC      O14            -5.6163675022        6.0029289703      -17.1757679407  MEMB      52              0.0000000000
      7061        52  DOPC      O12            -4.0530902553        7.1506065009      -18.6579869378  MEMB      52              0.0000000000
      7062        52  DOPC      O11            -5.0155698282        8.4043553021      -16.8532470067  MEMB      52              0.0000000000
      7063        52  DOPC      C1             -4.2038833872        9.5257749035      -16.4846211293  MEMB      52              0.0000000000
      7064        52  DOPC      HA             -4.8389005394       10.4359902724      -16.5728663829  MEMB      52              0.0000000000
      7065        52  DOPC      HB             -3.3256680798        9.6534422489      -17.1482236314  MEMB      52              0.0000000000
      7066        52  DOPC      C2             -3.7228212967        9.4415139887      -15.0155177755  MEMB      52              0.0000000000
      7067        52  DOPC      HS             -3.0003153932        8.5874978422      -14.9559512718  MEMB      52              0.0000000000
      7068        52  DOPC      O21            -4.9134419467        9.2491840757      -14.2492872671  MEMB      52              0.0000000000
      7069        52  DOPC      C21            -4.8880206272        8.1423030224      -13.5446283034  MEMB      52              0.0000000000
      7070        52  DOPC      O22            -3.9004309932        7.6027145434      -13.0737667952  MEMB      52              0.0000000000
      7071        52  DOPC      C22            -6.3313548206        7.6781226377      -13.4051033750  MEMB      52              0.0000000000
      7072        52  DOPC      H2R            -6.5784200482        7.1022058661      -14.3237108171  MEMB      52              0.0000000000
      7073        52  DOPC      H2S            -6.9698650856        8.5856365717      -13.3675173981  MEMB      52              0.0000000000
      7074        52  DOPC      C3             -2.9935742063       10.7024647719      -14.4883639927  MEMB      52              0.0000000000
      7075        52  DOPC      HX             -3.6156854241       11.5792360485      -14.7772722649  MEMB      52              0.0000000000
      7076        52  DOPC      HY             -1.9997645282       10.8155697994      -14.9743001950  MEMB      52              0.0000000000
      7077        52  DOPC      O31            -2.9156998081       10.6753821664      -13.0474510931  MEMB      52              0.0000000000
      7078        52  DOPC      C31            -1.9959089370        9.8544424574      -12.5342446471  MEMB      52              0.0000000000
      7079        52  DOPC      O32            -1.0410273830        9.4095933964      -13.1377982436  MEMB      52              0.0000000000
      7080        52  DOPC      C32            -2.3694639006        9.5978540822      -11.0493838040  MEMB      52              0.0000000000
      7081        52  DOPC      H2X            -2.1846604484       10.5403641017      -10.4995449507  MEMB      52              0.0000000000
      7082        52  DOPC      H2Y            -3.4596994050        9.3984290163      -11.0487825407  MEMB      52              0.0000000000
      7083        52  DOPC      C23            -6.5656772815        6.8353086107      -12.1431369326  MEMB      52              0.0000000000
      7084        52  DOPC      H3R            -6.0565949909        5.8496290910      -12.2327248075  MEMB      52              0.0000000000
      7085        52  DOPC      H3S            -7.6593199642        6.6358434212      -12.0695225160  MEMB      52              0.0000000000
      7086        52  DOPC      C24            -6.0922136214        7.5729251582      -10.8875484263  MEMB      52              0.0000000000
      7087        52  DOPC      H4R            -6.5079703502        8.6003122921      -10.8965152751  MEMB      52              0.0000000000
      7088        52  DOPC      H4S            -4.9887024297        7.6445667691      -10.9172129420  MEMB      52              0.0000000000
      7089        52  DOPC      C25            -6.5287587102        6.8996987113       -9.5961653795  MEMB      52              0.0000000000
      7090        52  DOPC      H5R            -5.9834221769        5.9400662759       -9.4574371200  MEMB      52              0.0000000000
      7091        52  DOPC      H5S            -7.6112254504        6.6582355334       -9.7188040670  MEMB      52              0.0000000000
      7092        52  DOPC      C26            -6.3740715575        7.7664636746       -8.3381925344  MEMB      52              0.0000000000
      7093        52  DOPC      H6R            -6.6688439696        8.8180325761       -8.5428520446  MEMB      52              0.0000000000
      7094        52  DOPC      H6S            -5.3207572614        7.7642615978       -7.9825583584  MEMB      52              0.0000000000
      7095        52  DOPC      C27            -7.2958014425        7.1658717510       -7.2824812641  MEMB      52              0.0000000000
      7096        52  DOPC      H7R            -6.9986095265        6.0946108769       -7.1849847483  MEMB      52              0.0000000000
      7097        52  DOPC      H7S            -8.3259773103        7.1738806210       -7.7011915724  MEMB      52              0.0000000000
      7098        52  DOPC      C28            -7.3294483068        7.8499241267       -5.9120127453  MEMB      52              0.0000000000
      7099        52  DOPC      H8R            -7.7753982238        8.8639240305       -6.0017420577  MEMB      52              0.0000000000
      7100        52  DOPC      H8S            -6.3093822117        7.9725488713       -5.4927785746  MEMB      52              0.0000000000
      7101        52  DOPC      C29            -8.1943847438        6.9417846515       -5.0776984723  MEMB      52              0.0000000000
      7102        52  DOPC      H9R            -9.2447755400        7.2484105122       -4.9925876444  MEMB      52              0.0000000000
      7103        52  DOPC      C210           -7.8020087159        5.8009529423       -4.4870745797  MEMB      52              0.0000000000
      7104        52  DOPC      H10R           -8.5398691426        5.1775455290       -3.9724551436  MEMB      52              0.0000000000
      7105        52  DOPC      C211           -6.4302288349        5.1924025548       -4.5183986158  MEMB      52              0.0000000000
      7106        52  DOPC      H11R           -5.6831993626        5.8967912670       -4.9441396178  MEMB      52              0.0000000000
      7107        52  DOPC      H11S           -6.4296982336        4.2810698254       -5.1568956223  MEMB      52              0.0000000000
      7108        52  DOPC      C212           -5.9839828597        4.7998434865       -3.0953893635  MEMB      52              0.0000000000
      7109        52  DOPC      H12R           -4.9140331760        4.4986871580       -3.1574296624  MEMB      52              0.0000000000
      7110        52  DOPC      H12S           -6.5543785100        3.9055493805       -2.7562915302  MEMB      52              0.0000000000
      7111        52  DOPC      C213           -6.1542302409        5.9370443873       -2.0638002332  MEMB      52              0.0000000000
      7112        52  DOPC      H13R           -7.2267818078        6.0262635245       -1.7751523014  MEMB      52              0.0000000000
      7113        52  DOPC      H13S           -5.8650552874        6.8947910000       -2.5530271590  MEMB      52              0.0000000000
      7114        52  DOPC      C214           -5.2830406455        5.7940642699       -0.8056328738  MEMB      52              0.0000000000
      7115        52  DOPC      H14R           -5.1943323432        6.7925331587       -0.3141676419  MEMB      52              0.0000000000
      7116        52  DOPC      H14S           -4.2671337372        5.5137650058       -1.1098301648  MEMB      52              0.0000000000
      7117        52  DOPC      C215           -5.8735466573        4.8552995301        0.2506844049  MEMB      52              0.0000000000
      7118        52  DOPC      H15R           -6.9580229340        4.9422007245        0.1063169772  MEMB      52              0.0000000000
      7119        52  DOPC      H15S           -5.6828765412        5.2581319990        1.2646823089  MEMB      52              0.0000000000
      7120        52  DOPC      C216           -5.4663040134        3.3756143775        0.1824153113  MEMB      52              0.0000000000
      7121        52  DOPC      H16R           -5.1600388607        3.1005448964       -0.8492996734  MEMB      52              0.0000000000
      7122        52  DOPC      H16S           -6.3655152969        2.7611980842        0.4019442895  MEMB      52              0.0000000000
      7123        52  DOPC      C217           -4.3745321623        2.9950621602        1.1958882862  MEMB      52              0.0000000000
      7124        52  DOPC      H17R           -3.4566772323        3.5694830603        0.9391426291  MEMB      52              0.0000000000
      7125        52  DOPC      H17S           -4.1356059250        1.9153526935        1.0677784596  MEMB      52              0.0000000000
      7126        52  DOPC      C218           -4.7251471063        3.2519236626        2.6707263918  MEMB      52              0.0000000000
      7127        52  DOPC      H18R           -4.7573169282        4.3418179860        2.8793308892  MEMB      52              0.0000000000
      7128        52  DOPC      H18S           -3.9556037369        2.8046147124        3.3357484835  MEMB      52              0.0000000000
      7129        52  DOPC      H18T           -5.7127548592        2.8206203656        2.9358061758  MEMB      52              0.0000000000
      7130        52  DOPC      C33            -1.6530208686        8.4158699050      -10.3250297607  MEMB      52              0.0000000000
      7131        52  DOPC      H3X            -0.8118219904        8.8274497506       -9.7355289276  MEMB      52              0.0000000000
      7132        52  DOPC      H3Y            -1.2268600785        7.7345158056      -11.0971117122  MEMB      52              0.0000000000
      7133        52  DOPC      C34            -2.5577343878        7.5336633273       -9.4146789979  MEMB      52              0.0000000000
      7134        52  DOPC      H4X            -2.4860173747        6.4923809443       -9.7994693176  MEMB      52              0.0000000000
      7135        52  DOPC      H4Y            -3.6085804560        7.8564805646       -9.5325962707  MEMB      52              0.0000000000
      7136        52  DOPC      C35            -2.2590452442        7.5635528572       -7.8947016760  MEMB      52              0.0000000000
      7137        52  DOPC      H5X            -1.3214963031        8.1254193797       -7.7640455102  MEMB      52              0.0000000000
      7138        52  DOPC      H5Y            -3.0526526379        8.1348181155       -7.3613163413  MEMB      52              0.0000000000
      7139        52  DOPC      C36            -2.0377580472        6.2060764804       -7.1935180689  MEMB      52              0.0000000000
      7140        52  DOPC      H6X            -2.9620325694        5.5854633452       -7.2242823300  MEMB      52              0.0000000000
      7141        52  DOPC      H6Y            -1.2565705239        5.6416801237       -7.7507381295  MEMB      52              0.0000000000
      7142        52  DOPC      C37            -1.5509356453        6.3509186945       -5.7239201131  MEMB      52              0.0000000000
      7143        52  DOPC      H7X            -2.3773208355        6.7262404996       -5.0856722029  MEMB      52              0.0000000000
      7144        52  DOPC      H7Y            -1.3409898916        5.3282264636       -5.3749428828  MEMB      52              0.0000000000
      7145        52  DOPC      C38            -0.2614698385        7.2358373270       -5.5479549170  MEMB      52              0.0000000000
      7146        52  DOPC      H8X            -0.5643262770        8.2708062244       -5.4706162498  MEMB      52              0.0000000000
      7147        52  DOPC      H8Y             0.1222968585        7.2841362548       -6.5663049112  MEMB      52              0.0000000000
      7148        52  DOPC      C39             0.8345531075        6.7437090597       -4.5846843273  MEMB      52              0.0000000000
      7149        52  DOPC      H9X             1.0576434975        5.7340578026       -4.9597804278  MEMB      52              0.0000000000
      7150        52  DOPC      C310            1.7113657322        7.0885626707       -3.5845323517  MEMB      52              0.0000000000
      7151        52  DOPC      H10X            2.3645701003        6.2360797448       -3.3508924912  MEMB      52              0.0000000000
      7152        52  DOPC      C311            2.0591899556        8.2305226941       -2.5967938255  MEMB      52              0.0000000000
      7153        52  DOPC      H11X            2.2168308217        9.2051886706       -3.1176829590  MEMB      52              0.0000000000
      7154        52  DOPC      H11Y            3.0846283538        8.0116571496       -2.1906547544  MEMB      52              0.0000000000
      7155        52  DOPC      C312            1.1525353438        8.4257077694       -1.3508913812  MEMB      52              0.0000000000
      7156        52  DOPC      H12X            1.4699321451        7.7274952517       -0.5451905247  MEMB      52              0.0000000000
      7157        52  DOPC      H12Y            0.1689871956        8.1026961567       -1.7209271806  MEMB      52              0.0000000000
      7158        52  DOPC      C313            0.9007306678        9.8347755739       -0.7271056517  MEMB      52              0.0000000000
      7159        52  DOPC      H13X            1.8390160188       10.2515219257       -0.3049707594  MEMB      52              0.0000000000
      7160        52  DOPC      H13Y            0.5643163625       10.5313670907       -1.5239250171  MEMB      52              0.0000000000
      7161        52  DOPC      C314           -0.2083377251        9.8594232365        0.3751634571  MEMB      52              0.0000000000
      7162        52  DOPC      H14X           -0.1647135392        8.9193817989        0.9584209222  MEMB      52              0.0000000000
      7163        52  DOPC      H14Y           -0.0359088365       10.6900677670        1.0975251670  MEMB      52              0.0000000000
      7164        52  DOPC      C315           -1.6156509084       10.0553388542       -0.2247824976  MEMB      52              0.0000000000
      7165        52  DOPC      H15X           -1.8986040544        9.1218631805       -0.7522006230  MEMB      52              0.0000000000
      7166        52  DOPC      H15Y           -1.5457620078       10.8943390608       -0.9552568441  MEMB      52              0.0000000000
      7167        52  DOPC      C316           -2.7992583955       10.3500824966        0.7027830924  MEMB      52              0.0000000000
      7168        52  DOPC      H16X           -2.5082574106       11.0484789970        1.5168855060  MEMB      52              0.0000000000
      7169        52  DOPC      H16Y           -3.5670497776       10.8543848384        0.0686805281  MEMB      52              0.0000000000
      7170        52  DOPC      C317           -3.4536323980        9.0702713251        1.2402784008  MEMB      52              0.0000000000
      7171        52  DOPC      H17X           -4.1133773689        8.6231133400        0.4611068659  MEMB      52              0.0000000000
      7172        52  DOPC      H17Y           -2.6394440077        8.3450632774        1.4322914031  MEMB      52              0.0000000000
      7173        52  DOPC      C318           -4.2322827680        9.2601207225        2.5379048700  MEMB      52              0.0000000000
      7174        52  DOPC      H18X           -3.6746785630        9.9649842958        3.1939192356  MEMB      52              0.0000000000
      7175        52  DOPC      H18Y           -5.2430091758        9.6723261565        2.3365997928  MEMB      52              0.0000000000
      7176        52  DOPC      H18Z           -4.3471336641        8.2968048757        3.0817899066  MEMB      52              0.0000000000
      7177        53  DOPC      N              -9.3650026348       -2.2690708035      -19.4993618624  MEMB      53              0.0000000000
      7178        53  DOPC      C12            -8.9142935560       -1.6751327292      -18.1594774315  MEMB      53              0.0000000000
      7179        53  DOPC      H12A           -8.6840171258       -2.4563717730      -17.4456347517  MEMB      53              0.0000000000
      7180        53  DOPC      H12B           -9.7368777537       -1.0957572393      -17.7579412095  MEMB      53              0.0000000000
      7181        53  DOPC      C13            -8.1659630827       -2.8108707078      -20.2057672298  MEMB      53              0.0000000000
      7182        53  DOPC      H13A           -8.4028618152       -3.0140223694      -21.2461959464  MEMB      53              0.0000000000
      7183        53  DOPC      H13B           -7.4144115407       -2.0262731108      -20.2028486589  MEMB      53              0.0000000000
      7184        53  DOPC      H13C           -7.7656740390       -3.6878661468      -19.7170325963  MEMB      53              0.0000000000
      7185        53  DOPC      C14            -9.9390412758       -1.2110459301      -20.3957233450  MEMB      53              0.0000000000
      7186        53  DOPC      H14A          -10.7452227573       -0.6684747160      -19.9225125512  MEMB      53              0.0000000000
      7187        53  DOPC      H14B           -9.1868157828       -0.4696071116      -20.6586940905  MEMB      53              0.0000000000
      7188        53  DOPC      H14C          -10.3025724767       -1.6527235346      -21.3258161021  MEMB      53              0.0000000000
      7189        53  DOPC      C15           -10.4123122438       -3.3240900119      -19.3290031118  MEMB      53              0.0000000000
      7190        53  DOPC      H15A          -11.2167396216       -2.9717103011      -18.6920605379  MEMB      53              0.0000000000
      7191        53  DOPC      H15B           -9.9929349696       -4.2203768402      -18.8919958148  MEMB      53              0.0000000000
      7192        53  DOPC      H15C          -10.8608758319       -3.5876107053      -20.2927367263  MEMB      53              0.0000000000
      7193        53  DOPC      C11            -7.7018599517       -0.7081045220      -18.1677347112  MEMB      53              0.0000000000
      7194        53  DOPC      H11A           -7.4088148157       -0.4751718194      -17.1157721186  MEMB      53              0.0000000000
      7195        53  DOPC      H11B           -6.8090073433       -1.1771246462      -18.6366580360  MEMB      53              0.0000000000
      7196        53  DOPC      P              -7.1138449262        1.7209844789      -18.9169217762  MEMB      53              0.0000000000
      7197        53  DOPC      O13            -7.6139349371        2.6272837231      -19.9577689670  MEMB      53              0.0000000000
      7198        53  DOPC      O14            -5.7256845126        1.2244526658      -19.1160524051  MEMB      53              0.0000000000
      7199        53  DOPC      O12            -8.0877489140        0.4761000535      -18.8444360054  MEMB      53              0.0000000000
      7200        53  DOPC      O11            -7.1896828243        2.3623089449      -17.4938377571  MEMB      53              0.0000000000
      7201        53  DOPC      C1             -8.3663662540        2.9115658265      -16.9107813788  MEMB      53              0.0000000000
      7202        53  DOPC      HA             -9.2700702628        2.8671271032      -17.5660828402  MEMB      53              0.0000000000
      7203        53  DOPC      HB             -8.1542858099        3.9914660246      -16.7318772457  MEMB      53              0.0000000000
      7204        53  DOPC      C2             -8.6559236904        2.2665927572      -15.5227883540  MEMB      53              0.0000000000
      7205        53  DOPC      HS             -9.2288503497        3.0078816349      -14.9156847698  MEMB      53              0.0000000000
      7206        53  DOPC      O21            -7.4279286937        1.8715333207      -14.8894442302  MEMB      53              0.0000000000
      7207        53  DOPC      C21            -6.8284834740        2.8792210200      -14.2964706353  MEMB      53              0.0000000000
      7208        53  DOPC      O22            -7.3305611906        3.9668586634      -14.0587636464  MEMB      53              0.0000000000
      7209        53  DOPC      C22            -5.4496708830        2.4257057528      -13.8321799132  MEMB      53              0.0000000000
      7210        53  DOPC      H2R            -4.9739802489        3.2699430739      -13.2963831523  MEMB      53              0.0000000000
      7211        53  DOPC      H2S            -4.8463778210        2.2008035340      -14.7370516804  MEMB      53              0.0000000000
      7212        53  DOPC      C3             -9.5412116890        1.0045824286      -15.5680547609  MEMB      53              0.0000000000
      7213        53  DOPC      HX             -9.0874720293        0.2691020855      -16.2541264946  MEMB      53              0.0000000000
      7214        53  DOPC      HY            -10.5231058940        1.2919279504      -15.9991978127  MEMB      53              0.0000000000
      7215        53  DOPC      O31            -9.7298970146        0.4981185853      -14.2260191371  MEMB      53              0.0000000000
      7216        53  DOPC      C31            -9.1636674317       -0.6580799944      -13.8954542118  MEMB      53              0.0000000000
      7217        53  DOPC      O32            -8.5705464124       -1.4009911489      -14.6555270446  MEMB      53              0.0000000000
      7218        53  DOPC      C32            -9.4438514706       -0.9409875121      -12.4245007884  MEMB      53              0.0000000000
      7219        53  DOPC      H2X            -8.7201420599       -0.3428776802      -11.8368066381  MEMB      53              0.0000000000
      7220        53  DOPC      H2Y           -10.4652543859       -0.5874904308      -12.1755569674  MEMB      53              0.0000000000
      7221        53  DOPC      C23            -5.5560141845        1.1685573140      -12.9335249272  MEMB      53              0.0000000000
      7222        53  DOPC      H3R            -4.5454218131        0.8660898834      -12.6107154106  MEMB      53              0.0000000000
      7223        53  DOPC      H3S            -5.9654741375        0.3254680251      -13.5377018026  MEMB      53              0.0000000000
      7224        53  DOPC      C24            -6.4451537910        1.3408033666      -11.6908729744  MEMB      53              0.0000000000
      7225        53  DOPC      H4R            -6.5714098917        0.3489537628      -11.2000439339  MEMB      53              0.0000000000
      7226        53  DOPC      H4S            -7.4441231735        1.6648562751      -12.0401251901  MEMB      53              0.0000000000
      7227        53  DOPC      C25            -5.9163533157        2.3328291604      -10.6474889150  MEMB      53              0.0000000000
      7228        53  DOPC      H5R            -5.7857779276        3.3418334313      -11.0969085750  MEMB      53              0.0000000000
      7229        53  DOPC      H5S            -4.9112213241        1.9834243167      -10.3228355239  MEMB      53              0.0000000000
      7230        53  DOPC      C26            -6.8116941573        2.4569930454       -9.4024426738  MEMB      53              0.0000000000
      7231        53  DOPC      H6R            -6.2320964893        3.0244709594       -8.6354901947  MEMB      53              0.0000000000
      7232        53  DOPC      H6S            -7.0267844008        1.4574747061       -8.9647127193  MEMB      53              0.0000000000
      7233        53  DOPC      C27            -8.1245023554        3.2304571715       -9.6267064354  MEMB      53              0.0000000000
      7234        53  DOPC      H7R            -7.9642257377        4.1146280030      -10.2798662944  MEMB      53              0.0000000000
      7235        53  DOPC      H7S            -8.4036265771        3.6282093059       -8.6287006593  MEMB      53              0.0000000000
      7236        53  DOPC      C28            -9.2978420940        2.3778418953      -10.1501642399  MEMB      53              0.0000000000
      7237        53  DOPC      H8R            -9.2607048746        1.3926661583       -9.6368753624  MEMB      53              0.0000000000
      7238        53  DOPC      H8S            -9.1724017633        2.1744218935      -11.2288846766  MEMB      53              0.0000000000
      7239        53  DOPC      C29           -10.6323882930        3.0512615183       -9.9752059916  MEMB      53              0.0000000000
      7240        53  DOPC      H9R           -10.8337312706        3.9097373381      -10.6358911920  MEMB      53              0.0000000000
      7241        53  DOPC      C210          -11.5470329646        2.7316513474       -9.0524870352  MEMB      53              0.0000000000
      7242        53  DOPC      H10R          -12.4942880915        3.2971953332       -9.0307348460  MEMB      53              0.0000000000
      7243        53  DOPC      C211          -11.4294799999        1.6488981704       -8.0117525364  MEMB      53              0.0000000000
      7244        53  DOPC      H11R          -10.6725687172        0.8681223685       -8.2283873256  MEMB      53              0.0000000000
      7245        53  DOPC      H11S          -12.4167914957        1.1359747289       -7.9786358545  MEMB      53              0.0000000000
      7246        53  DOPC      C212          -11.1813861930        2.2679353200       -6.6240010824  MEMB      53              0.0000000000
      7247        53  DOPC      H12R          -11.3618730205        1.5216371068       -5.8253626603  MEMB      53              0.0000000000
      7248        53  DOPC      H12S          -11.9786372736        3.0217647643       -6.5633949915  MEMB      53              0.0000000000
      7249        53  DOPC      C213           -9.8594592082        3.0036145790       -6.3203980779  MEMB      53              0.0000000000
      7250        53  DOPC      H13R           -9.9708575577        3.5794671209       -5.3732754599  MEMB      53              0.0000000000
      7251        53  DOPC      H13S           -9.6476538818        3.7479771899       -7.1112772486  MEMB      53              0.0000000000
      7252        53  DOPC      C214           -8.6750797828        2.0719539538       -6.1017101021  MEMB      53              0.0000000000
      7253        53  DOPC      H14R           -7.7574840712        2.4882083327       -6.5721083222  MEMB      53              0.0000000000
      7254        53  DOPC      H14S           -8.9258958987        1.1238623451       -6.6053078004  MEMB      53              0.0000000000
      7255        53  DOPC      C215           -8.3926866410        1.7700459681       -4.6242776710  MEMB      53              0.0000000000
      7256        53  DOPC      H15R           -9.3026847669        1.3090390201       -4.1813466540  MEMB      53              0.0000000000
      7257        53  DOPC      H15S           -8.1828594182        2.7048029000       -4.0631367830  MEMB      53              0.0000000000
      7258        53  DOPC      C216           -7.2151060724        0.7990163223       -4.5123048730  MEMB      53              0.0000000000
      7259        53  DOPC      H16R           -6.2558213572        1.3304973381       -4.6929563746  MEMB      53              0.0000000000
      7260        53  DOPC      H16S           -7.3490785066        0.0630743451       -5.3276039500  MEMB      53              0.0000000000
      7261        53  DOPC      C217           -7.1560335168        0.0077647185       -3.2072053843  MEMB      53              0.0000000000
      7262        53  DOPC      H17R           -6.5287649841       -0.8986054991       -3.3667588665  MEMB      53              0.0000000000
      7263        53  DOPC      H17S           -8.1766250871       -0.3488972520       -2.9486902271  MEMB      53              0.0000000000
      7264        53  DOPC      C218           -6.5416013823        0.8066619378       -2.0686231392  MEMB      53              0.0000000000
      7265        53  DOPC      H18R           -7.1874922752        1.6745335426       -1.8196156005  MEMB      53              0.0000000000
      7266        53  DOPC      H18S           -5.5403511169        1.1863690085       -2.3718957352  MEMB      53              0.0000000000
      7267        53  DOPC      H18T           -6.4236886755        0.1700679532       -1.1665647434  MEMB      53              0.0000000000
      7268        53  DOPC      C33            -9.3027261203       -2.4421129499      -12.0807669602  MEMB      53              0.0000000000
      7269        53  DOPC      H3X            -8.2544231486       -2.7672486158      -12.2787517927  MEMB      53              0.0000000000
      7270        53  DOPC      H3Y            -9.9767050075       -3.0459007069      -12.7281980901  MEMB      53              0.0000000000
      7271        53  DOPC      C34            -9.6330285094       -2.7541660886      -10.6162723815  MEMB      53              0.0000000000
      7272        53  DOPC      H4X            -9.5860766442       -3.8542399317      -10.4456860045  MEMB      53              0.0000000000
      7273        53  DOPC      H4Y           -10.6693112628       -2.4165658774      -10.3878451768  MEMB      53              0.0000000000
      7274        53  DOPC      C35            -8.6582656825       -2.0785436184       -9.6573295777  MEMB      53              0.0000000000
      7275        53  DOPC      H5X            -8.7070749634       -0.9734675262       -9.7929520147  MEMB      53              0.0000000000
      7276        53  DOPC      H5Y            -7.6181959721       -2.4016473373       -9.8853045000  MEMB      53              0.0000000000
      7277        53  DOPC      C36            -8.9756193514       -2.3705833575       -8.1961608880  MEMB      53              0.0000000000
      7278        53  DOPC      H6X           -10.0586120249       -2.1811322464       -8.0211196859  MEMB      53              0.0000000000
      7279        53  DOPC      H6Y            -8.7699344086       -3.4332175236       -7.9453312414  MEMB      53              0.0000000000
      7280        53  DOPC      C37            -8.1827148904       -1.4238671053       -7.2960543011  MEMB      53              0.0000000000
      7281        53  DOPC      H7X            -8.4709961537       -0.4074900995       -7.6288573911  MEMB      53              0.0000000000
      7282        53  DOPC      H7Y            -8.5114972792       -1.5397443949       -6.2426226338  MEMB      53              0.0000000000
      7283        53  DOPC      C38            -6.6502832604       -1.5126387340       -7.4340598401  MEMB      53              0.0000000000
      7284        53  DOPC      H8X            -6.1651871410       -0.7987247811       -6.7348780165  MEMB      53              0.0000000000
      7285        53  DOPC      H8Y            -6.3807710036       -1.1455434601       -8.4497738783  MEMB      53              0.0000000000
      7286        53  DOPC      C39            -6.0802369253       -2.8842892146       -7.2098011825  MEMB      53              0.0000000000
      7287        53  DOPC      H9X            -5.4909503533       -3.2755922911       -8.0534053605  MEMB      53              0.0000000000
      7288        53  DOPC      C310           -6.2529986576       -3.6554558702       -6.1216851618  MEMB      53              0.0000000000
      7289        53  DOPC      H10X           -5.6549662542       -4.5707645509       -6.0409269589  MEMB      53              0.0000000000
      7290        53  DOPC      C311           -7.0403610087       -3.3415171162       -4.8815597015  MEMB      53              0.0000000000
      7291        53  DOPC      H11X           -7.1178543532       -2.2422719318       -4.7712882004  MEMB      53              0.0000000000
      7292        53  DOPC      H11Y           -6.4616846879       -3.7030854996       -4.0016564050  MEMB      53              0.0000000000
      7293        53  DOPC      C312           -8.4840394816       -3.8908682506       -4.7336100318  MEMB      53              0.0000000000
      7294        53  DOPC      H12X           -8.4636567379       -4.9979761348       -4.6760928339  MEMB      53              0.0000000000
      7295        53  DOPC      H12Y           -9.1250374924       -3.6091991334       -5.5951126150  MEMB      53              0.0000000000
      7296        53  DOPC      C313           -9.0800876563       -3.2882096857       -3.4528506849  MEMB      53              0.0000000000
      7297        53  DOPC      H13X           -8.1928112786       -3.1101634246       -2.8013742495  MEMB      53              0.0000000000
      7298        53  DOPC      H13Y           -9.4893687402       -2.2821221730       -3.6727136384  MEMB      53              0.0000000000
      7299        53  DOPC      C314          -10.0554724721       -4.1545723497       -2.6305838309  MEMB      53              0.0000000000
      7300        53  DOPC      H14X          -11.1153108358       -3.9431053872       -2.8698743226  MEMB      53              0.0000000000
      7301        53  DOPC      H14Y           -9.9240852195       -5.2251879653       -2.8975025684  MEMB      53              0.0000000000
      7302        53  DOPC      C315           -9.7570442838       -3.9984592551       -1.1208514637  MEMB      53              0.0000000000
      7303        53  DOPC      H15X           -8.9019286156       -3.3120566159       -0.9689682427  MEMB      53              0.0000000000
      7304        53  DOPC      H15Y           -9.4348219382       -4.9943181394       -0.7788832645  MEMB      53              0.0000000000
      7305        53  DOPC      C316          -10.8750344934       -3.4866913121       -0.2083110677  MEMB      53              0.0000000000
      7306        53  DOPC      H16X          -11.5104105555       -2.7960880969       -0.7895781336  MEMB      53              0.0000000000
      7307        53  DOPC      H16Y          -11.5259299362       -4.3373977454        0.0343124705  MEMB      53              0.0000000000
      7308        53  DOPC      C317          -10.4158619792       -2.7063030998        1.0552632583  MEMB      53              0.0000000000
      7309        53  DOPC      H17X           -9.6274498335       -1.9690785815        0.7827490455  MEMB      53              0.0000000000
      7310        53  DOPC      H17Y          -11.2996814051       -2.1143797757        1.3903372098  MEMB      53              0.0000000000
      7311        53  DOPC      C318           -9.9639097268       -3.4923036658        2.2904526519  MEMB      53              0.0000000000
      7312        53  DOPC      H18X           -8.8641867929       -3.5497565898        2.3586405586  MEMB      53              0.0000000000
      7313        53  DOPC      H18Y          -10.3073355706       -2.9736997038        3.2124709398  MEMB      53              0.0000000000
      7314        53  DOPC      H18Z          -10.3753374603       -4.5199536402        2.2923192642  MEMB      53              0.0000000000
      7315        54  DOPC      N               7.8344562946       -0.6707843737      -20.9959242394  MEMB      54              0.0000000000
      7316        54  DOPC      C12             9.1350332126       -1.0146984876      -20.2891561537  MEMB      54              0.0000000000
      7317        54  DOPC      H12A            9.7900187689       -0.1469071533      -20.3608143822  MEMB      54              0.0000000000
      7318        54  DOPC      H12B            9.6042226360       -1.8504257662      -20.7903961937  MEMB      54              0.0000000000
      7319        54  DOPC      C13             7.4698820531        0.7529316775      -20.6850967109  MEMB      54              0.0000000000
      7320        54  DOPC      H13A            8.3284558798        1.3992725439      -20.8232593834  MEMB      54              0.0000000000
      7321        54  DOPC      H13B            6.6243371379        1.0982764665      -21.2623095312  MEMB      54              0.0000000000
      7322        54  DOPC      H13C            7.2610684066        0.8025765416      -19.6104020955  MEMB      54              0.0000000000
      7323        54  DOPC      C14             6.7512754932       -1.5525556041      -20.4559349000  MEMB      54              0.0000000000
      7324        54  DOPC      H14A            6.6739146307       -1.4153306882      -19.3773308139  MEMB      54              0.0000000000
      7325        54  DOPC      H14B            5.8000939394       -1.3176876677      -20.9110579725  MEMB      54              0.0000000000
      7326        54  DOPC      H14C            6.9362235788       -2.5984066216      -20.6892612679  MEMB      54              0.0000000000
      7327        54  DOPC      C15             7.9485964639       -0.8934830575      -22.4530610800  MEMB      54              0.0000000000
      7328        54  DOPC      H15A            8.3432987254       -1.8964416417      -22.6452121768  MEMB      54              0.0000000000
      7329        54  DOPC      H15B            8.6282530230       -0.1945196722      -22.9260249788  MEMB      54              0.0000000000
      7330        54  DOPC      H15C            6.9717701075       -0.8313408677      -22.9192180194  MEMB      54              0.0000000000
      7331        54  DOPC      C11             9.0263678890       -1.3489924446      -18.7812963616  MEMB      54              0.0000000000
      7332        54  DOPC      H11A            8.4925949198       -2.3135530470      -18.6408704118  MEMB      54              0.0000000000
      7333        54  DOPC      H11B           10.0518970412       -1.5053482076      -18.3608359883  MEMB      54              0.0000000000
      7334        54  DOPC      P               9.1262724995        0.9421020274      -17.6016858678  MEMB      54              0.0000000000
      7335        54  DOPC      O13             8.1932764899        2.0671267960      -17.3326243983  MEMB      54              0.0000000000
      7336        54  DOPC      O14            10.1954603385        1.1749295625      -18.6064903694  MEMB      54              0.0000000000
      7337        54  DOPC      O12             8.3115874438       -0.3112339476      -18.1059599726  MEMB      54              0.0000000000
      7338        54  DOPC      O11             9.6418042817        0.3268468732      -16.2472785988  MEMB      54              0.0000000000
      7339        54  DOPC      C1              8.6911695714       -0.2175475339      -15.3108886976  MEMB      54              0.0000000000
      7340        54  DOPC      HA              8.2929300744       -1.1829255071      -15.7012966683  MEMB      54              0.0000000000
      7341        54  DOPC      HB              7.8290890564        0.4678487605      -15.1408709515  MEMB      54              0.0000000000
      7342        54  DOPC      C2              9.3817258656       -0.5047597943      -13.9512042316  MEMB      54              0.0000000000
      7343        54  DOPC      HS              8.9569456012       -1.4321418709      -13.5034673596  MEMB      54              0.0000000000
      7344        54  DOPC      O21             9.2425165638        0.6334179749      -13.0827500343  MEMB      54              0.0000000000
      7345        54  DOPC      C21             8.6372530793        0.5234778558      -11.9196171678  MEMB      54              0.0000000000
      7346        54  DOPC      O22             8.1035231657       -0.4678335016      -11.4525759195  MEMB      54              0.0000000000
      7347        54  DOPC      C22             8.6066566440        1.9458789733      -11.3248465252  MEMB      54              0.0000000000
      7348        54  DOPC      H2R             7.6414188294        2.3827842249      -11.6586338001  MEMB      54              0.0000000000
      7349        54  DOPC      H2S             9.4175811661        2.5353132603      -11.7977507343  MEMB      54              0.0000000000
      7350        54  DOPC      C3             10.8840067190       -0.7168701005      -14.2420810876  MEMB      54              0.0000000000
      7351        54  DOPC      HX             11.2836430631        0.2427823741      -14.6445767719  MEMB      54              0.0000000000
      7352        54  DOPC      HY             11.0044786153       -1.4911071522      -15.0353367353  MEMB      54              0.0000000000
      7353        54  DOPC      O31            11.5995626332       -0.9879806029      -13.0411709495  MEMB      54              0.0000000000
      7354        54  DOPC      C31            12.5141833937       -1.9257806149      -13.0897136384  MEMB      54              0.0000000000
      7355        54  DOPC      O32            12.5508896539       -2.8895105603      -13.8370027260  MEMB      54              0.0000000000
      7356        54  DOPC      C32            13.6109881788       -1.5330672094      -12.1084548789  MEMB      54              0.0000000000
      7357        54  DOPC      H2X            14.5645058829       -1.9720128453      -12.4734552480  MEMB      54              0.0000000000
      7358        54  DOPC      H2Y            13.6854178058       -0.4329384657      -12.1617561138  MEMB      54              0.0000000000
      7359        54  DOPC      C23             8.7117410888        2.0520042462       -9.7796963510  MEMB      54              0.0000000000
      7360        54  DOPC      H3R             8.1706110386        1.2137601532       -9.2894720731  MEMB      54              0.0000000000
      7361        54  DOPC      H3S             8.1991396080        2.9987503575       -9.4833834398  MEMB      54              0.0000000000
      7362        54  DOPC      C24            10.1592855859        2.1507736298       -9.2568124051  MEMB      54              0.0000000000
      7363        54  DOPC      H4R            10.6545331745        3.0163843432       -9.7390779714  MEMB      54              0.0000000000
      7364        54  DOPC      H4S            10.7321900476        1.2468554530       -9.5450527149  MEMB      54              0.0000000000
      7365        54  DOPC      C25            10.2597140476        2.3566250754       -7.7344999059  MEMB      54              0.0000000000
      7366        54  DOPC      H5R             9.4196175002        3.0059175614       -7.4075914454  MEMB      54              0.0000000000
      7367        54  DOPC      H5S            11.2088286191        2.8846493773       -7.4862450892  MEMB      54              0.0000000000
      7368        54  DOPC      C26            10.2385702401        1.0251769840       -6.9768776164  MEMB      54              0.0000000000
      7369        54  DOPC      H6R            11.1651214782        0.4563570082       -7.2139415580  MEMB      54              0.0000000000
      7370        54  DOPC      H6S             9.3923169759        0.4276544328       -7.3728428087  MEMB      54              0.0000000000
      7371        54  DOPC      C27            10.1223410930        1.1414260246       -5.4442679973  MEMB      54              0.0000000000
      7372        54  DOPC      H7R            11.0196328400        1.6736186676       -5.0603037161  MEMB      54              0.0000000000
      7373        54  DOPC      H7S            10.1595416697        0.1197142475       -5.0097626382  MEMB      54              0.0000000000
      7374        54  DOPC      C28             8.8667558763        1.8727797858       -4.9096655575  MEMB      54              0.0000000000
      7375        54  DOPC      H8R             9.0552463787        2.9595246220       -5.0681239600  MEMB      54              0.0000000000
      7376        54  DOPC      H8S             8.8317088325        1.7355587547       -3.8049120502  MEMB      54              0.0000000000
      7377        54  DOPC      C29             7.5152729162        1.5413732615       -5.5027483605  MEMB      54              0.0000000000
      7378        54  DOPC      H9R             6.8851537756        2.4300703237       -5.6634491601  MEMB      54              0.0000000000
      7379        54  DOPC      C210            7.0049847469        0.3540381665       -5.8880512872  MEMB      54              0.0000000000
      7380        54  DOPC      H10R            6.0361250495        0.3469911993       -6.4062287591  MEMB      54              0.0000000000
      7381        54  DOPC      C211            7.6492809320       -0.9967056193       -5.8333327938  MEMB      54              0.0000000000
      7382        54  DOPC      H11R            8.4293787526       -1.0448735418       -5.0439237349  MEMB      54              0.0000000000
      7383        54  DOPC      H11S            8.1277073467       -1.1107022589       -6.8252610147  MEMB      54              0.0000000000
      7384        54  DOPC      C212            6.7561758935       -2.2456496291       -5.7080938686  MEMB      54              0.0000000000
      7385        54  DOPC      H12R            7.3119517402       -3.1281255012       -6.0924996209  MEMB      54              0.0000000000
      7386        54  DOPC      H12S            5.8811423292       -2.1593080183       -6.3734406790  MEMB      54              0.0000000000
      7387        54  DOPC      C213            6.3885805724       -2.5863550722       -4.2688294767  MEMB      54              0.0000000000
      7388        54  DOPC      H13R            5.5581333049       -3.3288474744       -4.2688880912  MEMB      54              0.0000000000
      7389        54  DOPC      H13S            6.0449790038       -1.6882740186       -3.7136817813  MEMB      54              0.0000000000
      7390        54  DOPC      C214            7.5927777475       -3.2224624457       -3.5746319138  MEMB      54              0.0000000000
      7391        54  DOPC      H14R            8.3741863731       -2.4693453088       -3.3706390876  MEMB      54              0.0000000000
      7392        54  DOPC      H14S            8.0102760195       -3.9936404756       -4.2595235091  MEMB      54              0.0000000000
      7393        54  DOPC      C215            7.1935502858       -3.9776151454       -2.3283168075  MEMB      54              0.0000000000
      7394        54  DOPC      H15R            8.0489968760       -4.5840499811       -1.9474977144  MEMB      54              0.0000000000
      7395        54  DOPC      H15S            6.3941817516       -4.6414332094       -2.7114704127  MEMB      54              0.0000000000
      7396        54  DOPC      C216            6.6535178619       -3.1211455755       -1.1996944519  MEMB      54              0.0000000000
      7397        54  DOPC      H16R            5.9732487487       -3.6860533332       -0.5248810843  MEMB      54              0.0000000000
      7398        54  DOPC      H16S            6.0784756243       -2.2564890237       -1.5934107477  MEMB      54              0.0000000000
      7399        54  DOPC      C217            7.8085915317       -2.6361976761       -0.3551365460  MEMB      54              0.0000000000
      7400        54  DOPC      H17R            8.6017414932       -2.2781171272       -1.0368174105  MEMB      54              0.0000000000
      7401        54  DOPC      H17S            8.2089093138       -3.4822341031        0.2478964564  MEMB      54              0.0000000000
      7402        54  DOPC      C218            7.3430543586       -1.4997007817        0.5093242360  MEMB      54              0.0000000000
      7403        54  DOPC      H18R            6.3175158683       -1.7444718880        0.8392848126  MEMB      54              0.0000000000
      7404        54  DOPC      H18S            7.2792555815       -0.5848656548       -0.1065689834  MEMB      54              0.0000000000
      7405        54  DOPC      H18T            7.9817657923       -1.3095353778        1.3859338311  MEMB      54              0.0000000000
      7406        54  DOPC      C33            13.3457232664       -1.9370842531      -10.6477314657  MEMB      54              0.0000000000
      7407        54  DOPC      H3X            14.1095761946       -1.4433101612      -10.0072431724  MEMB      54              0.0000000000
      7408        54  DOPC      H3Y            13.5013953767       -3.0288566512      -10.5550317051  MEMB      54              0.0000000000
      7409        54  DOPC      C34            11.9527413410       -1.5687171238      -10.1177636907  MEMB      54              0.0000000000
      7410        54  DOPC      H4X            11.1668380133       -1.9427501373      -10.8101882509  MEMB      54              0.0000000000
      7411        54  DOPC      H4Y            11.8482781808       -0.4639578474      -10.0615446893  MEMB      54              0.0000000000
      7412        54  DOPC      C35            11.6848821497       -2.1872191639       -8.7418487116  MEMB      54              0.0000000000
      7413        54  DOPC      H5X            11.9418715981       -1.4429673364       -7.9693983743  MEMB      54              0.0000000000
      7414        54  DOPC      H5Y            12.3309801900       -3.0850296504       -8.6163362148  MEMB      54              0.0000000000
      7415        54  DOPC      C36            10.2331204983       -2.6025779245       -8.5112723416  MEMB      54              0.0000000000
      7416        54  DOPC      H6X             9.5695861943       -1.7369138820       -8.7474333473  MEMB      54              0.0000000000
      7417        54  DOPC      H6Y             9.9677958782       -3.4099036950       -9.2272583824  MEMB      54              0.0000000000
      7418        54  DOPC      C37             9.9210438882       -3.0550956706       -7.0689046111  MEMB      54              0.0000000000
      7419        54  DOPC      H7X             9.7484208217       -2.1442923163       -6.4638334171  MEMB      54              0.0000000000
      7420        54  DOPC      H7Y             8.9868839460       -3.6542092036       -7.1300262254  MEMB      54              0.0000000000
      7421        54  DOPC      C38            10.9976386048       -3.7906481602       -6.2600931332  MEMB      54              0.0000000000
      7422        54  DOPC      H8X            11.7363451245       -3.0359368844       -5.9081016995  MEMB      54              0.0000000000
      7423        54  DOPC      H8Y            11.5606005784       -4.4639886295       -6.9288553665  MEMB      54              0.0000000000
      7424        54  DOPC      C39            10.3920867889       -4.5940184921       -5.1223607857  MEMB      54              0.0000000000
      7425        54  DOPC      H9X             9.5511153321       -5.2470760086       -5.3922940692  MEMB      54              0.0000000000
      7426        54  DOPC      C310           10.7632221106       -4.5676345022       -3.8352670851  MEMB      54              0.0000000000
      7427        54  DOPC      H10X           10.1946836944       -5.1329073510       -3.0806196275  MEMB      54              0.0000000000
      7428        54  DOPC      C311           11.8592244072       -3.7044759459       -3.2936571368  MEMB      54              0.0000000000
      7429        54  DOPC      H11X           12.7176230942       -3.5753478307       -3.9895305876  MEMB      54              0.0000000000
      7430        54  DOPC      H11Y           12.2523467123       -4.0757381343       -2.3211957193  MEMB      54              0.0000000000
      7431        54  DOPC      C312           11.1175007880       -2.3916458341       -3.1005428000  MEMB      54              0.0000000000
      7432        54  DOPC      H12X           10.1822567308       -2.5658229433       -2.5243300486  MEMB      54              0.0000000000
      7433        54  DOPC      H12Y           10.8235273324       -1.9401924197       -4.0806901782  MEMB      54              0.0000000000
      7434        54  DOPC      C313           11.9286509682       -1.3773173977       -2.3216748298  MEMB      54              0.0000000000
      7435        54  DOPC      H13X           12.8941194288       -1.8372740058       -2.0267160734  MEMB      54              0.0000000000
      7436        54  DOPC      H13Y           12.1421167279       -0.6301008770       -3.0966925245  MEMB      54              0.0000000000
      7437        54  DOPC      C314           11.1617533498       -0.9439430551       -1.0532252133  MEMB      54              0.0000000000
      7438        54  DOPC      H14X           10.0717476110       -1.0257688069       -1.2120244149  MEMB      54              0.0000000000
      7439        54  DOPC      H14Y           11.4945631355       -1.7202951704       -0.3364394874  MEMB      54              0.0000000000
      7440        54  DOPC      C315           11.4100410838        0.3827602308       -0.3150313094  MEMB      54              0.0000000000
      7441        54  DOPC      H15X           12.4808275415        0.6578490493       -0.4091534124  MEMB      54              0.0000000000
      7442        54  DOPC      H15Y           11.3153929915        0.2058673057        0.7658613779  MEMB      54              0.0000000000
      7443        54  DOPC      C316           10.4965072612        1.5704661475       -0.7318269798  MEMB      54              0.0000000000
      7444        54  DOPC      H16X           11.0740245574        2.4794329002       -0.4717037365  MEMB      54              0.0000000000
      7445        54  DOPC      H16Y           10.3767170636        1.5506918311       -1.8321674165  MEMB      54              0.0000000000
      7446        54  DOPC      C317            9.0657894741        1.7475171491       -0.1793231886  MEMB      54              0.0000000000
      7447        54  DOPC      H17X            8.4679281655        0.9031514358       -0.5719829882  MEMB      54              0.0000000000
      7448        54  DOPC      H17Y            9.0564049523        1.6974134517        0.9306925694  MEMB      54              0.0000000000
      7449        54  DOPC      C318            8.3561343036        3.0494031538       -0.6229835816  MEMB      54              0.0000000000
      7450        54  DOPC      H18X            8.0597457581        2.9861993841       -1.6923089096  MEMB      54              0.0000000000
      7451        54  DOPC      H18Y            7.4270599558        3.2247258826       -0.0369026546  MEMB      54              0.0000000000
      7452        54  DOPC      H18Z            9.0056004850        3.9416505838       -0.4957595431  MEMB      54              0.0000000000
      7453        55  DOPC      N               6.2649346399        6.2410519003      -18.5931990768  MEMB      55              0.0000000000
      7454        55  DOPC      C12             4.9868313014        5.4080762536      -18.7585126482  MEMB      55              0.0000000000
      7455        55  DOPC      H12A            4.9089019253        4.7167200282      -17.9295494197  MEMB      55              0.0000000000
      7456        55  DOPC      H12B            5.0746688353        4.8372154693      -19.6751276785  MEMB      55              0.0000000000
      7457        55  DOPC      C13             6.0633171832        7.1909003262      -17.4635383368  MEMB      55              0.0000000000
      7458        55  DOPC      H13A            5.7629691707        6.6892229544      -16.5584543426  MEMB      55              0.0000000000
      7459        55  DOPC      H13B            6.9280345002        7.8043113754      -17.2915806778  MEMB      55              0.0000000000
      7460        55  DOPC      H13C            5.2496393583        7.8771334457      -17.7194528676  MEMB      55              0.0000000000
      7461        55  DOPC      C14             6.4920254850        7.0235125273      -19.8545172131  MEMB      55              0.0000000000
      7462        55  DOPC      H14A            5.5661672014        7.5504022683      -20.0980192353  MEMB      55              0.0000000000
      7463        55  DOPC      H14B            7.2734428338        7.7564839420      -19.7725553210  MEMB      55              0.0000000000
      7464        55  DOPC      H14C            6.6954138763        6.3555443076      -20.6850334016  MEMB      55              0.0000000000
      7465        55  DOPC      C15             7.4513233907        5.3712948977      -18.2814682641  MEMB      55              0.0000000000
      7466        55  DOPC      H15A            7.7151898606        4.7171869279      -19.1082066065  MEMB      55              0.0000000000
      7467        55  DOPC      H15B            7.2645243785        4.7230746880      -17.4257898292  MEMB      55              0.0000000000
      7468        55  DOPC      H15C            8.3249951140        5.9729148200      -18.0566862812  MEMB      55              0.0000000000
      7469        55  DOPC      C11             3.6021003277        6.1216963301      -18.8127212096  MEMB      55              0.0000000000
      7470        55  DOPC      H11A            2.8277192561        5.3306302985      -18.9599086042  MEMB      55              0.0000000000
      7471        55  DOPC      H11B            3.3844980591        6.5670509783      -17.8115540371  MEMB      55              0.0000000000
      7472        55  DOPC      P               3.2141524422        8.5926426591      -19.5765240134  MEMB      55              0.0000000000
      7473        55  DOPC      O13             3.0918622232        9.3119658254      -20.8623160114  MEMB      55              0.0000000000
      7474        55  DOPC      O14             4.1872666883        9.0913718629      -18.5927507425  MEMB      55              0.0000000000
      7475        55  DOPC      O12             3.5161952987        7.0644228646      -19.8857444508  MEMB      55              0.0000000000
      7476        55  DOPC      O11             1.7701968290        8.5049024253      -18.9513561147  MEMB      55              0.0000000000
      7477        55  DOPC      C1              1.2247221689        9.5313755990      -18.1205338300  MEMB      55              0.0000000000
      7478        55  DOPC      HA              0.2289849254        9.8159956522      -18.5191033847  MEMB      55              0.0000000000
      7479        55  DOPC      HB              1.8357311162       10.4648760407      -18.1445535334  MEMB      55              0.0000000000
      7480        55  DOPC      C2              1.0228718880        9.0284397651      -16.6511439392  MEMB      55              0.0000000000
      7481        55  DOPC      HS              0.3761441097        9.7552446688      -16.1082232160  MEMB      55              0.0000000000
      7482        55  DOPC      O21             2.2763364018        8.9122343535      -15.9737881707  MEMB      55              0.0000000000
      7483        55  DOPC      C21             2.9794528791       10.0166081753      -15.8769966487  MEMB      55              0.0000000000
      7484        55  DOPC      O22             2.5455998375       11.1585409050      -15.9302382710  MEMB      55              0.0000000000
      7485        55  DOPC      C22             4.4405333613        9.6392993667      -15.6843011402  MEMB      55              0.0000000000
      7486        55  DOPC      H2R             4.9860745014       10.1285985398      -16.5204268484  MEMB      55              0.0000000000
      7487        55  DOPC      H2S             4.5386184809        8.5439199966      -15.7856740085  MEMB      55              0.0000000000
      7488        55  DOPC      C3              0.3028267359        7.6444029360      -16.5781393695  MEMB      55              0.0000000000
      7489        55  DOPC      HX              0.7434035395        6.9546782916      -17.3331353569  MEMB      55              0.0000000000
      7490        55  DOPC      HY             -0.7582738720        7.7922792571      -16.8633883294  MEMB      55              0.0000000000
      7491        55  DOPC      O31             0.3342965436        7.0906899229      -15.2440994647  MEMB      55              0.0000000000
      7492        55  DOPC      C31             1.3368990408        6.2736530655      -14.9687129848  MEMB      55              0.0000000000
      7493        55  DOPC      O32             2.1658724860        5.8551270048      -15.7635895909  MEMB      55              0.0000000000
      7494        55  DOPC      C32             1.3599723613        5.9460305836      -13.4578088235  MEMB      55              0.0000000000
      7495        55  DOPC      H2X             1.6896810574        6.8595753610      -12.9237796330  MEMB      55              0.0000000000
      7496        55  DOPC      H2Y             0.3204849722        5.7087593074      -13.1528182320  MEMB      55              0.0000000000
      7497        55  DOPC      C23             5.0288107583       10.1208289336      -14.3539501537  MEMB      55              0.0000000000
      7498        55  DOPC      H3R             4.7660564321       11.1914123808      -14.2179063488  MEMB      55              0.0000000000
      7499        55  DOPC      H3S             6.1388523030       10.0516497045      -14.4322894120  MEMB      55              0.0000000000
      7500        55  DOPC      C24             4.5822369423        9.3068882707      -13.1328931282  MEMB      55              0.0000000000
      7501        55  DOPC      H4R             3.4731437734        9.2350281478      -13.0997455806  MEMB      55              0.0000000000
      7502        55  DOPC      H4S             4.8958498225        9.8661379012      -12.2291958690  MEMB      55              0.0000000000
      7503        55  DOPC      C25             5.2157073673        7.9069804524      -13.0688547649  MEMB      55              0.0000000000
      7504        55  DOPC      H5R             6.3175094070        8.0046598884      -13.1833805777  MEMB      55              0.0000000000
      7505        55  DOPC      H5S             4.8339802406        7.3127785276      -13.9292818782  MEMB      55              0.0000000000
      7506        55  DOPC      C26             4.9258016663        7.1451638336      -11.7694102217  MEMB      55              0.0000000000
      7507        55  DOPC      H6R             5.4579446472        6.1708667335      -11.7620423042  MEMB      55              0.0000000000
      7508        55  DOPC      H6S             3.8308442422        6.9114825607      -11.7571956433  MEMB      55              0.0000000000
      7509        55  DOPC      C27             5.1724421278        7.9180934315      -10.4581924383  MEMB      55              0.0000000000
      7510        55  DOPC      H7R             4.8995702051        7.2303842808       -9.6272557959  MEMB      55              0.0000000000
      7511        55  DOPC      H7S             4.4213558627        8.7401741995      -10.4936782409  MEMB      55              0.0000000000
      7512        55  DOPC      C28             6.5003203578        8.6423624974      -10.1626782867  MEMB      55              0.0000000000
      7513        55  DOPC      H8R             6.7591937602        9.2622209046      -11.0499727540  MEMB      55              0.0000000000
      7514        55  DOPC      H8S             7.3447800983        7.9451575578       -9.9855460173  MEMB      55              0.0000000000
      7515        55  DOPC      C29             6.2345389845        9.5452231016       -8.9710030385  MEMB      55              0.0000000000
      7516        55  DOPC      H9R             6.2428996969       10.6179280941       -9.2044687168  MEMB      55              0.0000000000
      7517        55  DOPC      C210            6.0452945093        9.1993203166       -7.6820141827  MEMB      55              0.0000000000
      7518        55  DOPC      H10R            5.8391057677       10.0050804611       -6.9602034743  MEMB      55              0.0000000000
      7519        55  DOPC      C211            6.0616503489        7.8118393573       -7.0904803822  MEMB      55              0.0000000000
      7520        55  DOPC      H11R            7.0651233365        7.6181016066       -6.6540452667  MEMB      55              0.0000000000
      7521        55  DOPC      H11S            5.9193549938        7.0439632403       -7.8808050660  MEMB      55              0.0000000000
      7522        55  DOPC      C212            5.0017331590        7.5295839057       -6.0062006956  MEMB      55              0.0000000000
      7523        55  DOPC      H12R            5.0905392740        6.4616277013       -5.7106118607  MEMB      55              0.0000000000
      7524        55  DOPC      H12S            3.9983735774        7.6382414773       -6.4721718942  MEMB      55              0.0000000000
      7525        55  DOPC      C213            5.0349458437        8.4230581847       -4.7492799769  MEMB      55              0.0000000000
      7526        55  DOPC      H13R            4.0044672714        8.3829134981       -4.3340787761  MEMB      55              0.0000000000
      7527        55  DOPC      H13S            5.2186575982        9.4855287589       -5.0014099369  MEMB      55              0.0000000000
      7528        55  DOPC      C214            5.9683661407        7.9726746294       -3.6109497183  MEMB      55              0.0000000000
      7529        55  DOPC      H14R            5.7049729449        8.5802498882       -2.7197296043  MEMB      55              0.0000000000
      7530        55  DOPC      H14S            7.0364323834        8.1646018306       -3.8397964213  MEMB      55              0.0000000000
      7531        55  DOPC      C215            5.7399769052        6.5281318427       -3.1672297200  MEMB      55              0.0000000000
      7532        55  DOPC      H15R            6.4204864529        5.8322074694       -3.7035551865  MEMB      55              0.0000000000
      7533        55  DOPC      H15S            4.7008146497        6.2914655465       -3.4824154689  MEMB      55              0.0000000000
      7534        55  DOPC      C216            5.8678090191        6.3614282894       -1.6436101660  MEMB      55              0.0000000000
      7535        55  DOPC      H16R            5.2749392277        7.1589340092       -1.1362189668  MEMB      55              0.0000000000
      7536        55  DOPC      H16S            6.9286953516        6.4929296134       -1.3359528958  MEMB      55              0.0000000000
      7537        55  DOPC      C217            5.3207630566        5.0213113773       -1.1523063514  MEMB      55              0.0000000000
      7538        55  DOPC      H17R            5.4660065537        4.9523542468       -0.0502651300  MEMB      55              0.0000000000
      7539        55  DOPC      H17S            5.8998085280        4.1952325033       -1.6233836014  MEMB      55              0.0000000000
      7540        55  DOPC      C218            3.8352450409        4.8612508237       -1.4712840672  MEMB      55              0.0000000000
      7541        55  DOPC      H18R            3.4435459033        3.9138687980       -1.0687614650  MEMB      55              0.0000000000
      7542        55  DOPC      H18S            3.6663992394        4.8306843974       -2.5643877574  MEMB      55              0.0000000000
      7543        55  DOPC      H18T            3.2489375565        5.7048162773       -1.0500909862  MEMB      55              0.0000000000
      7544        55  DOPC      C33             2.2854960446        4.7396791428      -13.1385648012  MEMB      55              0.0000000000
      7545        55  DOPC      H3X             3.3319830631        4.9622522880      -13.4428361763  MEMB      55              0.0000000000
      7546        55  DOPC      H3Y             1.8886674160        3.9078760138      -13.7495661939  MEMB      55              0.0000000000
      7547        55  DOPC      C34             2.2963317367        4.2004459885      -11.6943409445  MEMB      55              0.0000000000
      7548        55  DOPC      H4X             1.2757596212        3.8462259900      -11.4316138460  MEMB      55              0.0000000000
      7549        55  DOPC      H4Y             2.5807308099        5.0211450615      -11.0113916867  MEMB      55              0.0000000000
      7550        55  DOPC      C35             3.3154705175        3.0618665152      -11.4431177002  MEMB      55              0.0000000000
      7551        55  DOPC      H5X             4.3099285929        3.5120303491      -11.2327662808  MEMB      55              0.0000000000
      7552        55  DOPC      H5Y             3.4548207488        2.4474419344      -12.3483990373  MEMB      55              0.0000000000
      7553        55  DOPC      C36             2.9485861268        2.0979158003      -10.2948037337  MEMB      55              0.0000000000
      7554        55  DOPC      H6X             2.1059549425        1.4462920611      -10.6253030522  MEMB      55              0.0000000000
      7555        55  DOPC      H6Y             3.8157320839        1.4258549678      -10.1032825229  MEMB      55              0.0000000000
      7556        55  DOPC      C37             2.5470903054        2.7882133675       -8.9865676197  MEMB      55              0.0000000000
      7557        55  DOPC      H7X             1.5186250412        3.1949351675       -9.1351832231  MEMB      55              0.0000000000
      7558        55  DOPC      H7Y             2.4751768831        2.0203801254       -8.1817894697  MEMB      55              0.0000000000
      7559        55  DOPC      C38             3.5143086506        3.9001463991       -8.5404371246  MEMB      55              0.0000000000
      7560        55  DOPC      H8X             3.9272446991        4.4741062081       -9.3903972020  MEMB      55              0.0000000000
      7561        55  DOPC      H8Y             4.3755400751        3.4255844850       -8.0157024004  MEMB      55              0.0000000000
      7562        55  DOPC      C39             2.7897066082        4.8149175854       -7.6086129472  MEMB      55              0.0000000000
      7563        55  DOPC      H9X             2.9531002169        4.5509793462       -6.5524795639  MEMB      55              0.0000000000
      7564        55  DOPC      C310            1.9860387852        5.8697726109       -7.8235686749  MEMB      55              0.0000000000
      7565        55  DOPC      H10X            1.4814241584        6.1273876709       -6.9110400409  MEMB      55              0.0000000000
      7566        55  DOPC      C311            1.3984574140        6.6821100156       -8.9690675172  MEMB      55              0.0000000000
      7567        55  DOPC      H11X            0.3059857812        6.7790197018       -8.7880387825  MEMB      55              0.0000000000
      7568        55  DOPC      H11Y            1.4858487480        6.2024322153       -9.9571879488  MEMB      55              0.0000000000
      7569        55  DOPC      C312            1.8851084763        8.1482677955       -9.1102351913  MEMB      55              0.0000000000
      7570        55  DOPC      H12X            1.2360828100        8.7070918335       -9.8204981725  MEMB      55              0.0000000000
      7571        55  DOPC      H12Y            2.8671506687        8.1234993501       -9.5873687858  MEMB      55              0.0000000000
      7572        55  DOPC      C313            1.9991008081        8.9575348854       -7.8111617330  MEMB      55              0.0000000000
      7573        55  DOPC      H13X            1.9341030892        8.2908159046       -6.9283532747  MEMB      55              0.0000000000
      7574        55  DOPC      H13Y            2.9988808392        9.4499367985       -7.7535691353  MEMB      55              0.0000000000
      7575        55  DOPC      C314            0.9178394003       10.0359922096       -7.7370305582  MEMB      55              0.0000000000
      7576        55  DOPC      H14X            1.0631481930       10.7519721093       -8.5809144573  MEMB      55              0.0000000000
      7577        55  DOPC      H14Y           -0.0793563400        9.5891192664       -7.8774242952  MEMB      55              0.0000000000
      7578        55  DOPC      C315            0.9279936322       10.8202527727       -6.4291429339  MEMB      55              0.0000000000
      7579        55  DOPC      H15X            1.0804885327       11.8737248661       -6.7707429219  MEMB      55              0.0000000000
      7580        55  DOPC      H15Y            1.8091025458       10.5631848490       -5.8018562844  MEMB      55              0.0000000000
      7581        55  DOPC      C316           -0.3901901862       10.7764951625       -5.6051107324  MEMB      55              0.0000000000
      7582        55  DOPC      H16X           -0.6674770490       11.8282444210       -5.4407813727  MEMB      55              0.0000000000
      7583        55  DOPC      H16Y           -1.2131597482       10.3157245329       -6.1820480355  MEMB      55              0.0000000000
      7584        55  DOPC      C317           -0.2914724682       10.2467224790       -4.1616369984  MEMB      55              0.0000000000
      7585        55  DOPC      H17X           -0.0268595187       11.0946778601       -3.4908255773  MEMB      55              0.0000000000
      7586        55  DOPC      H17Y            0.5718118545        9.5555360577       -4.1619127435  MEMB      55              0.0000000000
      7587        55  DOPC      C318           -1.5084004102        9.5182422573       -3.5421508728  MEMB      55              0.0000000000
      7588        55  DOPC      H18X           -2.4358377507       10.1181467311       -3.4956427650  MEMB      55              0.0000000000
      7589        55  DOPC      H18Y           -1.7521158166        8.5331556308       -3.9832074668  MEMB      55              0.0000000000
      7590        55  DOPC      H18Z           -1.2026461567        9.2553666109       -2.5245691103  MEMB      55              0.0000000000
      7591        56  DOPC      N               3.1559380089       -5.7910890707      -18.1835004263  MEMB      56              0.0000000000
      7592        56  DOPC      C12             2.3726314876       -6.5959901017      -19.2174940901  MEMB      56              0.0000000000
      7593        56  DOPC      H12A            2.9052577784       -6.5340745311      -20.1649628527  MEMB      56              0.0000000000
      7594        56  DOPC      H12B            1.4010662577       -6.1541363314      -19.3725755641  MEMB      56              0.0000000000
      7595        56  DOPC      C13             3.2208861021       -4.3403687468      -18.5568659339  MEMB      56              0.0000000000
      7596        56  DOPC      H13A            3.7613684498       -4.1749841280      -19.4848311782  MEMB      56              0.0000000000
      7597        56  DOPC      H13B            2.2548224496       -3.8498842752      -18.6902460023  MEMB      56              0.0000000000
      7598        56  DOPC      H13C            3.7372129693       -3.7552775059      -17.8023195954  MEMB      56              0.0000000000
      7599        56  DOPC      C14             4.5654584094       -6.2996017388      -18.1599505672  MEMB      56              0.0000000000
      7600        56  DOPC      H14A            5.1935981236       -5.7956517630      -17.4401346159  MEMB      56              0.0000000000
      7601        56  DOPC      H14B            4.5638734141       -7.3705046951      -17.9544372926  MEMB      56              0.0000000000
      7602        56  DOPC      H14C            5.0115170608       -6.1699493814      -19.1393627970  MEMB      56              0.0000000000
      7603        56  DOPC      C15             2.5444931086       -5.9951225605      -16.8400734823  MEMB      56              0.0000000000
      7604        56  DOPC      H15A            2.5445181444       -7.0513075578      -16.5847995310  MEMB      56              0.0000000000
      7605        56  DOPC      H15B            1.5368453227       -5.6021186581      -16.7733208011  MEMB      56              0.0000000000
      7606        56  DOPC      H15C            3.1267702327       -5.5004083452      -16.0683849724  MEMB      56              0.0000000000
      7607        56  DOPC      C11             2.1353285578       -8.0922667952      -18.8968631512  MEMB      56              0.0000000000
      7608        56  DOPC      H11A            1.6209488860       -8.2185106612      -17.9208936756  MEMB      56              0.0000000000
      7609        56  DOPC      H11B            1.4422977450       -8.5183653417      -19.6637974769  MEMB      56              0.0000000000
      7610        56  DOPC      P               3.6952836876       -9.9525830725      -19.8277917703  MEMB      56              0.0000000000
      7611        56  DOPC      O13             4.0875332628       -9.3597508514      -21.1103779395  MEMB      56              0.0000000000
      7612        56  DOPC      O14             2.5649884209      -10.8936662876      -19.9498616113  MEMB      56              0.0000000000
      7613        56  DOPC      O12             3.3748905059       -8.7782115741      -18.8297851440  MEMB      56              0.0000000000
      7614        56  DOPC      O11             4.9944741727      -10.5895054202      -19.2249558309  MEMB      56              0.0000000000
      7615        56  DOPC      C1              5.6994456509       -9.9779259252      -18.1519541473  MEMB      56              0.0000000000
      7616        56  DOPC      HA              5.8190460757       -8.8811018010      -18.2793727157  MEMB      56              0.0000000000
      7617        56  DOPC      HB              6.7092678258      -10.4319411629      -18.1543212273  MEMB      56              0.0000000000
      7618        56  DOPC      C2              5.1282995693      -10.3375536858      -16.7562438680  MEMB      56              0.0000000000
      7619        56  DOPC      HS              5.3226354431      -11.4294968752      -16.6481227580  MEMB      56              0.0000000000
      7620        56  DOPC      O21             3.7479747179       -9.9980883648      -16.5901017833  MEMB      56              0.0000000000
      7621        56  DOPC      C21             2.9540221174      -11.0581359280      -16.5363581058  MEMB      56              0.0000000000
      7622        56  DOPC      O22             3.2463277804      -12.1887778874      -16.8770522863  MEMB      56              0.0000000000
      7623        56  DOPC      C22             1.7090854174      -10.7176431359      -15.7215751655  MEMB      56              0.0000000000
      7624        56  DOPC      H2R             1.0607175544      -11.6196095147      -15.7187212406  MEMB      56              0.0000000000
      7625        56  DOPC      H2S             1.1656871959       -9.8944524124      -16.2247485640  MEMB      56              0.0000000000
      7626        56  DOPC      C3              5.8583777377       -9.6475643889      -15.5960926687  MEMB      56              0.0000000000
      7627        56  DOPC      HX              5.6423998288       -8.5567899956      -15.6363903508  MEMB      56              0.0000000000
      7628        56  DOPC      HY              6.9489404408       -9.7716863310      -15.7105154581  MEMB      56              0.0000000000
      7629        56  DOPC      O31             5.3942051961      -10.1736513637      -14.3394774766  MEMB      56              0.0000000000
      7630        56  DOPC      C31             5.8267179606      -11.3993110582      -14.0667281975  MEMB      56              0.0000000000
      7631        56  DOPC      O32             6.6141920459      -12.0345516169      -14.7411859483  MEMB      56              0.0000000000
      7632        56  DOPC      C32             5.2503783882      -11.8590221039      -12.7465928700  MEMB      56              0.0000000000
      7633        56  DOPC      H2X             5.2079319608      -10.9685102653      -12.0827479464  MEMB      56              0.0000000000
      7634        56  DOPC      H2Y             4.2218417614      -12.2358513000      -12.8947472243  MEMB      56              0.0000000000
      7635        56  DOPC      C23             2.1435412261      -10.3497063173      -14.2816451911  MEMB      56              0.0000000000
      7636        56  DOPC      H3R             3.1352891871       -9.8568142283      -14.3201842804  MEMB      56              0.0000000000
      7637        56  DOPC      H3S             2.2648673815      -11.2748834417      -13.6777884452  MEMB      56              0.0000000000
      7638        56  DOPC      C24             1.2321158614       -9.3556071183      -13.5560166571  MEMB      56              0.0000000000
      7639        56  DOPC      H4R             0.2314312626       -9.8252858409      -13.4209124548  MEMB      56              0.0000000000
      7640        56  DOPC      H4S             1.0999483455       -8.4564879362      -14.1991131870  MEMB      56              0.0000000000
      7641        56  DOPC      C25             1.7827278661       -8.9044257793      -12.1807493841  MEMB      56              0.0000000000
      7642        56  DOPC      H5R             1.7991842679       -9.7780216854      -11.4909343809  MEMB      56              0.0000000000
      7643        56  DOPC      H5S             1.0599593757       -8.1745563131      -11.7538372628  MEMB      56              0.0000000000
      7644        56  DOPC      C26             3.1932360955       -8.2633314258      -12.2043243560  MEMB      56              0.0000000000
      7645        56  DOPC      H6R             3.5108162419       -8.1603042727      -13.2676832082  MEMB      56              0.0000000000
      7646        56  DOPC      H6S             3.9339282868       -8.9230132685      -11.7046012638  MEMB      56              0.0000000000
      7647        56  DOPC      C27             3.2665473930       -6.8413519754      -11.6091457792  MEMB      56              0.0000000000
      7648        56  DOPC      H7R             2.2695750560       -6.3728754455      -11.7631909714  MEMB      56              0.0000000000
      7649        56  DOPC      H7S             4.0122804623       -6.2571577086      -12.1936308403  MEMB      56              0.0000000000
      7650        56  DOPC      C28             3.6083386251       -6.6936960381      -10.1104316625  MEMB      56              0.0000000000
      7651        56  DOPC      H8R             3.0768373713       -7.5009144004       -9.5622769545  MEMB      56              0.0000000000
      7652        56  DOPC      H8S             3.1431416677       -5.7417766061       -9.7676642720  MEMB      56              0.0000000000
      7653        56  DOPC      C29             5.0780465749       -6.6184862637       -9.7572513273  MEMB      56              0.0000000000
      7654        56  DOPC      H9R             5.5919082823       -5.6720782007       -9.9997040901  MEMB      56              0.0000000000
      7655        56  DOPC      C210            5.7640085796       -7.5957104105       -9.1448868038  MEMB      56              0.0000000000
      7656        56  DOPC      H10R            6.8119983958       -7.4246958123       -8.8520491030  MEMB      56              0.0000000000
      7657        56  DOPC      C211            5.1615046562       -8.9133790950       -8.7271561323  MEMB      56              0.0000000000
      7658        56  DOPC      H11R            5.9477404110       -9.6918546343       -8.6379445617  MEMB      56              0.0000000000
      7659        56  DOPC      H11S            4.4496798072       -9.2781425959       -9.4998211215  MEMB      56              0.0000000000
      7660        56  DOPC      C212            4.4308916748       -8.7534908731       -7.3835018153  MEMB      56              0.0000000000
      7661        56  DOPC      H12R            3.9400190369       -7.7522234625       -7.3338150842  MEMB      56              0.0000000000
      7662        56  DOPC      H12S            5.1762566774       -8.7980317216       -6.5597485220  MEMB      56              0.0000000000
      7663        56  DOPC      C213            3.3055595346       -9.7600186514       -7.1074722084  MEMB      56              0.0000000000
      7664        56  DOPC      H13R            3.6292139878      -10.8030823284       -7.3118673445  MEMB      56              0.0000000000
      7665        56  DOPC      H13S            2.4644313055       -9.5340088053       -7.8035816721  MEMB      56              0.0000000000
      7666        56  DOPC      C214            2.8058594856       -9.5876886465       -5.6593494839  MEMB      56              0.0000000000
      7667        56  DOPC      H14R            1.7503580616       -9.9285935433       -5.5781333270  MEMB      56              0.0000000000
      7668        56  DOPC      H14S            2.8349300163       -8.5036730567       -5.4107687055  MEMB      56              0.0000000000
      7669        56  DOPC      C215            3.6447359155      -10.3350658714       -4.6149911214  MEMB      56              0.0000000000
      7670        56  DOPC      H15R            4.5164853281      -10.7778299047       -5.1333576513  MEMB      56              0.0000000000
      7671        56  DOPC      H15S            3.0287169666      -11.1504361373       -4.1762962743  MEMB      56              0.0000000000
      7672        56  DOPC      C216            4.2481406569       -9.4641073844       -3.5037471826  MEMB      56              0.0000000000
      7673        56  DOPC      H16R            3.4576499258       -8.8447519772       -3.0295035024  MEMB      56              0.0000000000
      7674        56  DOPC      H16S            5.0008543755       -8.7821547622       -3.9658452204  MEMB      56              0.0000000000
      7675        56  DOPC      C217            4.9566662758      -10.3084353633       -2.4326933603  MEMB      56              0.0000000000
      7676        56  DOPC      H17R            5.5289306670       -9.6485118014       -1.7578558830  MEMB      56              0.0000000000
      7677        56  DOPC      H17S            5.7337561963      -10.9233674219       -2.9270935389  MEMB      56              0.0000000000
      7678        56  DOPC      C218            4.0263113185      -11.2029873667       -1.6027253700  MEMB      56              0.0000000000
      7679        56  DOPC      H18R            3.2855696535      -10.5891887926       -1.0489354629  MEMB      56              0.0000000000
      7680        56  DOPC      H18S            4.6071385881      -11.8025838123       -0.8701859874  MEMB      56              0.0000000000
      7681        56  DOPC      H18T            3.4733049300      -11.9087821852       -2.2570171387  MEMB      56              0.0000000000
      7682        56  DOPC      C33             6.1237095891      -12.9417763777      -12.0855216452  MEMB      56              0.0000000000
      7683        56  DOPC      H3X             7.1969497621      -12.6322110812      -12.1041099269  MEMB      56              0.0000000000
      7684        56  DOPC      H3Y             6.0587675660      -13.9228810854      -12.6037234705  MEMB      56              0.0000000000
      7685        56  DOPC      C34             5.6962642260      -13.0820644093      -10.6320460250  MEMB      56              0.0000000000
      7686        56  DOPC      H4X             4.7071735059      -13.5757522622      -10.5429891960  MEMB      56              0.0000000000
      7687        56  DOPC      H4Y             5.5622311195      -12.0358942084      -10.2596567211  MEMB      56              0.0000000000
      7688        56  DOPC      C35             6.7510429054      -13.7546703469       -9.7560189609  MEMB      56              0.0000000000
      7689        56  DOPC      H5X             7.5717076390      -14.1687090677      -10.3879336984  MEMB      56              0.0000000000
      7690        56  DOPC      H5Y             6.3117623154      -14.6010542614       -9.1839883006  MEMB      56              0.0000000000
      7691        56  DOPC      C36             7.3279262243      -12.7031094527       -8.8103140258  MEMB      56              0.0000000000
      7692        56  DOPC      H6X             8.2789288116      -13.0651861593       -8.3619515327  MEMB      56              0.0000000000
      7693        56  DOPC      H6Y             7.5550665860      -11.8082957609       -9.4235491533  MEMB      56              0.0000000000
      7694        56  DOPC      C37             6.3573426930      -12.2829248103       -7.7024746574  MEMB      56              0.0000000000
      7695        56  DOPC      H7X             6.6669818245      -11.2963004803       -7.2895791091  MEMB      56              0.0000000000
      7696        56  DOPC      H7Y             5.3292237406      -12.1687827423       -8.1134479060  MEMB      56              0.0000000000
      7697        56  DOPC      C38             6.3758984867      -13.3466208523       -6.6103273662  MEMB      56              0.0000000000
      7698        56  DOPC      H8X             7.4380390662      -13.4869963734       -6.3137365495  MEMB      56              0.0000000000
      7699        56  DOPC      H8Y             6.0159817729      -14.2850802951       -7.0769318127  MEMB      56              0.0000000000
      7700        56  DOPC      C39             5.5036555402      -13.0566416559       -5.4346111389  MEMB      56              0.0000000000
      7701        56  DOPC      H9X             4.5014894886      -12.6789139747       -5.6860082349  MEMB      56              0.0000000000
      7702        56  DOPC      C310            5.8081943079      -13.2647860584       -4.1475916894  MEMB      56              0.0000000000
      7703        56  DOPC      H10X            5.0496628706      -13.0390538539       -3.3853171557  MEMB      56              0.0000000000
      7704        56  DOPC      C311            7.0791993762      -13.8307754590       -3.5948200006  MEMB      56              0.0000000000
      7705        56  DOPC      H11X            7.9056472673      -13.8417271660       -4.3400502440  MEMB      56              0.0000000000
      7706        56  DOPC      H11Y            6.8946222686      -14.8844137491       -3.2931812954  MEMB      56              0.0000000000
      7707        56  DOPC      C312            7.5684804874      -13.0609717143       -2.3699663008  MEMB      56              0.0000000000
      7708        56  DOPC      H12X            8.1504923368      -13.7607003017       -1.7316919330  MEMB      56              0.0000000000
      7709        56  DOPC      H12Y            6.7154197486      -12.7094200288       -1.7534041116  MEMB      56              0.0000000000
      7710        56  DOPC      C313            8.5024994095      -11.9118555856       -2.7501018338  MEMB      56              0.0000000000
      7711        56  DOPC      H13X            9.2619816359      -12.2943539168       -3.4642642585  MEMB      56              0.0000000000
      7712        56  DOPC      H13Y            7.9411644769      -11.1091490825       -3.2765870210  MEMB      56              0.0000000000
      7713        56  DOPC      C314            9.2156081044      -11.3516678247       -1.5186878329  MEMB      56              0.0000000000
      7714        56  DOPC      H14X            9.8959110523      -12.1228385323       -1.0889626608  MEMB      56              0.0000000000
      7715        56  DOPC      H14Y            9.8373691497      -10.4811398822       -1.8259559097  MEMB      56              0.0000000000
      7716        56  DOPC      C315            8.2383679021      -10.9474766488       -0.4205359325  MEMB      56              0.0000000000
      7717        56  DOPC      H15X            8.1057965605      -11.7869451694        0.2979949453  MEMB      56              0.0000000000
      7718        56  DOPC      H15Y            7.2384226848      -10.7536360707       -0.8659135797  MEMB      56              0.0000000000
      7719        56  DOPC      C316            8.6898396123       -9.6846258651        0.3051777393  MEMB      56              0.0000000000
      7720        56  DOPC      H16X            9.6609087197       -9.8666502952        0.8147579738  MEMB      56              0.0000000000
      7721        56  DOPC      H16Y            8.8482228128       -8.8753265372       -0.4417356794  MEMB      56              0.0000000000
      7722        56  DOPC      C317            7.6359083904       -9.2656472476        1.3253107788  MEMB      56              0.0000000000
      7723        56  DOPC      H17X            6.6855976760       -9.0607040935        0.7876293359  MEMB      56              0.0000000000
      7724        56  DOPC      H17Y            7.4433884426      -10.1396629616        1.9892391641  MEMB      56              0.0000000000
      7725        56  DOPC      C318            8.0334123521       -8.0604106305        2.1742326104  MEMB      56              0.0000000000
      7726        56  DOPC      H18X            8.0590283899       -7.1286923813        1.5705311033  MEMB      56              0.0000000000
      7727        56  DOPC      H18Y            7.3041995050       -7.9333873601        3.0027284396  MEMB      56              0.0000000000
      7728        56  DOPC      H18Z            9.0382276142       -8.2226410779        2.6182931577  MEMB      56              0.0000000000
      7729        57  DOPC      N              -5.1316025065       -7.1935338405      -20.6719305124  MEMB      57              0.0000000000
      7730        57  DOPC      C12            -5.3207068118       -8.6932142171      -20.4788597101  MEMB      57              0.0000000000
      7731        57  DOPC      H12A           -4.4067290711       -9.1186913631      -20.0635673535  MEMB      57              0.0000000000
      7732        57  DOPC      H12B           -5.4377023552       -9.1590688269      -21.4500198167  MEMB      57              0.0000000000
      7733        57  DOPC      C13            -4.5489260794       -6.9268665027      -22.0278946431  MEMB      57              0.0000000000
      7734        57  DOPC      H13A           -4.3527283267       -5.8696741878      -22.1700208823  MEMB      57              0.0000000000
      7735        57  DOPC      H13B           -3.6283990632       -7.4751173583      -22.1755756777  MEMB      57              0.0000000000
      7736        57  DOPC      H13C           -5.2478449231       -7.2545299594      -22.7933867759  MEMB      57              0.0000000000
      7737        57  DOPC      C14            -4.2318220800       -6.6512431747      -19.6131791298  MEMB      57              0.0000000000
      7738        57  DOPC      H14A           -3.2876614128       -7.1697292586      -19.5800881631  MEMB      57              0.0000000000
      7739        57  DOPC      H14B           -4.1014056876       -5.5927933545      -19.7357183107  MEMB      57              0.0000000000
      7740        57  DOPC      H14C           -4.6703189738       -6.8565056869      -18.6267459118  MEMB      57              0.0000000000
      7741        57  DOPC      C15            -6.4388912376       -6.4890849112      -20.5194740043  MEMB      57              0.0000000000
      7742        57  DOPC      H15A           -7.1753339210       -6.8929916118      -21.1966528538  MEMB      57              0.0000000000
      7743        57  DOPC      H15B           -6.3254671913       -5.4236312033      -20.6897344306  MEMB      57              0.0000000000
      7744        57  DOPC      H15C           -6.7839333898       -6.6933488151      -19.5035818708  MEMB      57              0.0000000000
      7745        57  DOPC      C11            -6.4935879358       -9.1809193434      -19.5930897440  MEMB      57              0.0000000000
      7746        57  DOPC      H11A           -7.4659825165       -8.9683377413      -20.0875303945  MEMB      57              0.0000000000
      7747        57  DOPC      H11B           -6.4534540557      -10.2953327639      -19.5173972327  MEMB      57              0.0000000000
      7748        57  DOPC      P              -5.4219161905       -9.1070471317      -17.2309323951  MEMB      57              0.0000000000
      7749        57  DOPC      O13            -4.3754973354       -8.0601758822      -17.1104365763  MEMB      57              0.0000000000
      7750        57  DOPC      O14            -4.9903293047      -10.4679662777      -17.6463252047  MEMB      57              0.0000000000
      7751        57  DOPC      O12            -6.4708863407       -8.5659260476      -18.3072898610  MEMB      57              0.0000000000
      7752        57  DOPC      O11            -6.3142438227       -9.1765913059      -15.8975894923  MEMB      57              0.0000000000
      7753        57  DOPC      C1             -7.6013182135       -8.5338721293      -15.8649273592  MEMB      57              0.0000000000
      7754        57  DOPC      HA             -8.2176549016       -8.8331720073      -16.7474829555  MEMB      57              0.0000000000
      7755        57  DOPC      HB             -7.4436749669       -7.4352577848      -15.9081695625  MEMB      57              0.0000000000
      7756        57  DOPC      C2             -8.5411620854       -8.7845643573      -14.6109210046  MEMB      57              0.0000000000
      7757        57  DOPC      HS             -9.1847868297       -7.8795872679      -14.5219348898  MEMB      57              0.0000000000
      7758        57  DOPC      O21            -7.8126707241       -9.0004066320      -13.3717369651  MEMB      57              0.0000000000
      7759        57  DOPC      C21            -8.5334920412       -8.8075170354      -12.2578486384  MEMB      57              0.0000000000
      7760        57  DOPC      O22            -9.7414422790       -8.6849912904      -12.2045965105  MEMB      57              0.0000000000
      7761        57  DOPC      C22            -7.6002764212       -8.5837576507      -11.0698456539  MEMB      57              0.0000000000
      7762        57  DOPC      H2R            -7.0860489242       -7.6152045322      -11.2353466423  MEMB      57              0.0000000000
      7763        57  DOPC      H2S            -6.8404483561       -9.3895144938      -11.0567262108  MEMB      57              0.0000000000
      7764        57  DOPC      C3             -9.4922246085       -9.9945982874      -14.8971293742  MEMB      57              0.0000000000
      7765        57  DOPC      HX            -10.2058368381       -9.6781848615      -15.6953511942  MEMB      57              0.0000000000
      7766        57  DOPC      HY            -10.1153379968      -10.1772578924      -13.9994389939  MEMB      57              0.0000000000
      7767        57  DOPC      O31            -8.7985389080      -11.1726441768      -15.3569110211  MEMB      57              0.0000000000
      7768        57  DOPC      C31            -8.3899511567      -12.0140744318      -14.4243336040  MEMB      57              0.0000000000
      7769        57  DOPC      O32            -8.7212458806      -12.0013243756      -13.2531759830  MEMB      57              0.0000000000
      7770        57  DOPC      C32            -7.4312789282      -13.0134240778      -15.0465894904  MEMB      57              0.0000000000
      7771        57  DOPC      H2X            -7.4703053083      -13.9593568981      -14.4710056037  MEMB      57              0.0000000000
      7772        57  DOPC      H2Y            -7.7405693843      -13.2045093644      -16.0959956622  MEMB      57              0.0000000000
      7773        57  DOPC      C23            -8.3506548272       -8.5476893399       -9.7203784566  MEMB      57              0.0000000000
      7774        57  DOPC      H3R            -8.1998988960       -9.5517950946       -9.2659177701  MEMB      57              0.0000000000
      7775        57  DOPC      H3S            -9.4498403205       -8.3995473028       -9.8353949925  MEMB      57              0.0000000000
      7776        57  DOPC      C24            -7.8548983878       -7.4631609115       -8.7498155365  MEMB      57              0.0000000000
      7777        57  DOPC      H4R            -8.4419603969       -7.5362754423       -7.8049956962  MEMB      57              0.0000000000
      7778        57  DOPC      H4S            -8.0576016274       -6.4502387423       -9.1661329818  MEMB      57              0.0000000000
      7779        57  DOPC      C25            -6.3621227354       -7.5957839013       -8.4124582019  MEMB      57              0.0000000000
      7780        57  DOPC      H5R            -5.7882433176       -6.9911314838       -9.1495416383  MEMB      57              0.0000000000
      7781        57  DOPC      H5S            -6.0438789943       -8.6554443344       -8.5067952818  MEMB      57              0.0000000000
      7782        57  DOPC      C26            -6.0452489896       -7.1270756302       -6.9871522454  MEMB      57              0.0000000000
      7783        57  DOPC      H6R            -6.6810676346       -7.6922850143       -6.2696958454  MEMB      57              0.0000000000
      7784        57  DOPC      H6S            -6.3870199781       -6.0794055490       -6.9520449487  MEMB      57              0.0000000000
      7785        57  DOPC      C27            -4.5690520600       -7.2492796927       -6.5292967232  MEMB      57              0.0000000000
      7786        57  DOPC      H7R            -4.4034386175       -8.2965024091       -6.1993013545  MEMB      57              0.0000000000
      7787        57  DOPC      H7S            -4.4309575892       -6.5976644058       -5.6416474633  MEMB      57              0.0000000000
      7788        57  DOPC      C28            -3.5113636462       -6.9197892647       -7.6104205372  MEMB      57              0.0000000000
      7789        57  DOPC      H8R            -3.6796739974       -5.8742772825       -7.9489256657  MEMB      57              0.0000000000
      7790        57  DOPC      H8S            -3.7784437267       -7.5716487092       -8.4736213853  MEMB      57              0.0000000000
      7791        57  DOPC      C29            -2.0289927471       -7.1472902658       -7.3756358766  MEMB      57              0.0000000000
      7792        57  DOPC      H9R            -1.5114906913       -7.4069440731       -8.3133715724  MEMB      57              0.0000000000
      7793        57  DOPC      C210           -1.2502507459       -7.0913239196       -6.2713876169  MEMB      57              0.0000000000
      7794        57  DOPC      H10R           -0.1804016708       -7.3133537050       -6.4044728750  MEMB      57              0.0000000000
      7795        57  DOPC      C211           -1.5892802957       -6.7697116451       -4.8354143393  MEMB      57              0.0000000000
      7796        57  DOPC      H11R           -2.6082852375       -6.3488440707       -4.7435581147  MEMB      57              0.0000000000
      7797        57  DOPC      H11S           -0.8965877263       -5.9817483985       -4.4607880525  MEMB      57              0.0000000000
      7798        57  DOPC      C212           -1.4380371843       -8.0040605139       -3.9164275495  MEMB      57              0.0000000000
      7799        57  DOPC      H12R           -0.3703437945       -8.3243364006       -3.9128981815  MEMB      57              0.0000000000
      7800        57  DOPC      H12S           -2.0341653887       -8.8493294708       -4.3256963355  MEMB      57              0.0000000000
      7801        57  DOPC      C213           -1.8654361222       -7.7623250570       -2.4557716660  MEMB      57              0.0000000000
      7802        57  DOPC      H13R           -1.2734220296       -6.9162616858       -2.0386731777  MEMB      57              0.0000000000
      7803        57  DOPC      H13S           -1.6296268683       -8.6651264614       -1.8482849186  MEMB      57              0.0000000000
      7804        57  DOPC      C214           -3.3584495991       -7.4384714543       -2.2847148746  MEMB      57              0.0000000000
      7805        57  DOPC      H14R           -3.5521551348       -6.4761914402       -2.8020636307  MEMB      57              0.0000000000
      7806        57  DOPC      H14S           -3.5667257069       -7.2721710559       -1.2029645297  MEMB      57              0.0000000000
      7807        57  DOPC      C215           -4.3157673229       -8.5194687261       -2.8248684807  MEMB      57              0.0000000000
      7808        57  DOPC      H15R           -4.0598645048       -9.4950014764       -2.3555579561  MEMB      57              0.0000000000
      7809        57  DOPC      H15S           -4.1787182425       -8.6561559897       -3.9162127502  MEMB      57              0.0000000000
      7810        57  DOPC      C216           -5.7886384875       -8.2006914450       -2.5336171503  MEMB      57              0.0000000000
      7811        57  DOPC      H16R           -5.9172650454       -8.0952500931       -1.4327830964  MEMB      57              0.0000000000
      7812        57  DOPC      H16S           -6.4403093657       -9.0373416566       -2.8724101705  MEMB      57              0.0000000000
      7813        57  DOPC      C217           -6.2847506180       -6.8962021481       -3.1468926563  MEMB      57              0.0000000000
      7814        57  DOPC      H17R           -6.4018204352       -7.0124488528       -4.2440261596  MEMB      57              0.0000000000
      7815        57  DOPC      H17S           -5.5440612999       -6.0853710668       -2.9783117330  MEMB      57              0.0000000000
      7816        57  DOPC      C218           -7.5989835099       -6.4631794687       -2.5195019941  MEMB      57              0.0000000000
      7817        57  DOPC      H18R           -7.6802038533       -5.3588353336       -2.5462172538  MEMB      57              0.0000000000
      7818        57  DOPC      H18S           -7.6477190714       -6.7650793069       -1.4531041337  MEMB      57              0.0000000000
      7819        57  DOPC      H18T           -8.4617855522       -6.9109498521       -3.0564106139  MEMB      57              0.0000000000
      7820        57  DOPC      C33            -6.0139133687      -12.4177940702      -15.0080396088  MEMB      57              0.0000000000
      7821        57  DOPC      H3X            -6.0084060618      -11.3525414824      -15.3122187502  MEMB      57              0.0000000000
      7822        57  DOPC      H3Y            -5.3979104897      -12.9533496245      -15.7652331857  MEMB      57              0.0000000000
      7823        57  DOPC      C34            -5.3132566697      -12.5820030587      -13.6591464093  MEMB      57              0.0000000000
      7824        57  DOPC      H4X            -4.2262914055      -12.4540440735      -13.8614087835  MEMB      57              0.0000000000
      7825        57  DOPC      H4Y            -5.4837065165      -13.6149750583      -13.2870500001  MEMB      57              0.0000000000
      7826        57  DOPC      C35            -5.6329802041      -11.5919526579      -12.5265679746  MEMB      57              0.0000000000
      7827        57  DOPC      H5X            -6.6887371830      -11.6758880950      -12.2009031499  MEMB      57              0.0000000000
      7828        57  DOPC      H5Y            -5.4568017488      -10.5500627564      -12.8770434281  MEMB      57              0.0000000000
      7829        57  DOPC      C36            -4.7299138996      -11.9339986920      -11.3354501932  MEMB      57              0.0000000000
      7830        57  DOPC      H6X            -4.9066965783      -13.0043888811      -11.0742539385  MEMB      57              0.0000000000
      7831        57  DOPC      H6Y            -3.6677901169      -11.8523153500      -11.6598168182  MEMB      57              0.0000000000
      7832        57  DOPC      C37            -4.9232730019      -11.1096607490      -10.0595865609  MEMB      57              0.0000000000
      7833        57  DOPC      H7X            -4.6472330226      -10.0505277287      -10.2520860986  MEMB      57              0.0000000000
      7834        57  DOPC      H7Y            -5.9905308082      -11.1452812014       -9.7497835369  MEMB      57              0.0000000000
      7835        57  DOPC      C38            -4.0424700068      -11.7189236938       -8.9524917669  MEMB      57              0.0000000000
      7836        57  DOPC      H8X            -3.0395616829      -11.8785167342       -9.4065030904  MEMB      57              0.0000000000
      7837        57  DOPC      H8Y            -4.4539892979      -12.7341443095       -8.7515069543  MEMB      57              0.0000000000
      7838        57  DOPC      C39            -3.8683999802      -10.9484539894       -7.6679090724  MEMB      57              0.0000000000
      7839        57  DOPC      H9X            -3.0502376221      -10.2124641120       -7.6771581773  MEMB      57              0.0000000000
      7840        57  DOPC      C310           -4.6216948490      -11.0754472426       -6.5588226275  MEMB      57              0.0000000000
      7841        57  DOPC      H10X           -4.3782567070      -10.4737038512       -5.6706135956  MEMB      57              0.0000000000
      7842        57  DOPC      C311           -5.7880364386      -12.0153350879       -6.4087423257  MEMB      57              0.0000000000
      7843        57  DOPC      H11X           -5.9558196919      -12.2985753725       -5.3463952047  MEMB      57              0.0000000000
      7844        57  DOPC      H11Y           -5.5652943957      -12.9683716203       -6.9383971411  MEMB      57              0.0000000000
      7845        57  DOPC      C312           -7.0716572575      -11.4147028510       -7.0309436221  MEMB      57              0.0000000000
      7846        57  DOPC      H12X           -7.6062017704      -12.2310240805       -7.5617191477  MEMB      57              0.0000000000
      7847        57  DOPC      H12Y           -6.8342279757      -10.6602342358       -7.8069423379  MEMB      57              0.0000000000
      7848        57  DOPC      C313           -8.0778465286      -10.7958710471       -6.0444192464  MEMB      57              0.0000000000
      7849        57  DOPC      H13X           -8.3042882041      -11.6125140342       -5.3251968963  MEMB      57              0.0000000000
      7850        57  DOPC      H13Y           -7.6077681538       -9.9427279730       -5.5105102146  MEMB      57              0.0000000000
      7851        57  DOPC      C314           -9.3632048601      -10.3559995815       -6.7855339973  MEMB      57              0.0000000000
      7852        57  DOPC      H14X           -9.0526968177       -9.6035870903       -7.5250836053  MEMB      57              0.0000000000
      7853        57  DOPC      H14Y           -9.7168036912      -11.2516027245       -7.3353782899  MEMB      57              0.0000000000
      7854        57  DOPC      C315          -10.5911659883       -9.7115430650       -6.0964640159  MEMB      57              0.0000000000
      7855        57  DOPC      H15X          -11.3966134651       -9.7487235843       -6.8751675746  MEMB      57              0.0000000000
      7856        57  DOPC      H15Y          -10.4274641652       -8.6310011795       -5.8806112730  MEMB      57              0.0000000000
      7857        57  DOPC      C316          -11.1057955970      -10.3857953541       -4.8234273173  MEMB      57              0.0000000000
      7858        57  DOPC      H16X          -12.0798923347       -9.9137422967       -4.5424886028  MEMB      57              0.0000000000
      7859        57  DOPC      H16Y          -11.3057387069      -11.4639897349       -5.0002169707  MEMB      57              0.0000000000
      7860        57  DOPC      C317          -10.1369615647      -10.2497756878       -3.6465990090  MEMB      57              0.0000000000
      7861        57  DOPC      H17X           -9.1580301200      -10.6994794637       -3.8718221309  MEMB      57              0.0000000000
      7862        57  DOPC      H17Y           -9.9404750996       -9.1730508716       -3.4501387216  MEMB      57              0.0000000000
      7863        57  DOPC      C318          -10.6402874394      -10.9398615125       -2.3932556083  MEMB      57              0.0000000000
      7864        57  DOPC      H18X           -9.8726398780      -11.6069789270       -1.9456333717  MEMB      57              0.0000000000
      7865        57  DOPC      H18Y          -10.9087748972      -10.1723145255       -1.6519306747  MEMB      57              0.0000000000
      7866        57  DOPC      H18Z          -11.5419094191      -11.5376610705       -2.6209362231  MEMB      57              0.0000000000
      7867        58  DOPC      N             -11.3894309909        9.4694064658      -19.8572404707  MEMB      58              0.0000000000
      7868        58  DOPC      C12           -11.0250845789        8.5238418361      -18.7047868274  MEMB      58              0.0000000000
      7869        58  DOPC      H12A          -11.7940408436        8.5897758529      -17.9321142187  MEMB      58              0.0000000000
      7870        58  DOPC      H12B          -10.0913673624        8.8508529474      -18.2617928939  MEMB      58              0.0000000000
      7871        58  DOPC      C13           -10.6346926103        9.1669593233      -21.1153625688  MEMB      58              0.0000000000
      7872        58  DOPC      H13A          -11.0023907790        9.7843326482      -21.9349809726  MEMB      58              0.0000000000
      7873        58  DOPC      H13B           -9.5784822469        9.3609180439      -21.0116487798  MEMB      58              0.0000000000
      7874        58  DOPC      H13C          -10.7819614647        8.1275593979      -21.3868777344  MEMB      58              0.0000000000
      7875        58  DOPC      C14           -11.1197089491       10.8803883697      -19.4837593397  MEMB      58              0.0000000000
      7876        58  DOPC      H14A          -11.4067560523       11.0847366406      -18.4593262409  MEMB      58              0.0000000000
      7877        58  DOPC      H14B          -10.0775268462       11.1349545610      -19.6231262103  MEMB      58              0.0000000000
      7878        58  DOPC      H14C          -11.7231167046       11.5230358282      -20.1154309341  MEMB      58              0.0000000000
      7879        58  DOPC      C15           -12.8477357519        9.3436889128      -20.1737874718  MEMB      58              0.0000000000
      7880        58  DOPC      H15A          -13.0814801808        8.3009483906      -20.3667250320  MEMB      58              0.0000000000
      7881        58  DOPC      H15B          -13.1165450199        9.9507574305      -21.0348855195  MEMB      58              0.0000000000
      7882        58  DOPC      H15C          -13.4593368125        9.6593280515      -19.3405604427  MEMB      58              0.0000000000
      7883        58  DOPC      C11           -10.8775781208        7.0062945902      -18.9906495753  MEMB      58              0.0000000000
      7884        58  DOPC      H11A          -10.1086290519        6.8436422505      -19.7730893456  MEMB      58              0.0000000000
      7885        58  DOPC      H11B          -10.4639895055        6.5211614437      -18.0668832289  MEMB      58              0.0000000000
      7886        58  DOPC      P             -12.9110756186        5.4136503826      -18.4767511966  MEMB      58              0.0000000000
      7887        58  DOPC      O13           -12.0151787479        4.2921549517      -18.0994286653  MEMB      58              0.0000000000
      7888        58  DOPC      O14           -14.1825522782        5.0797717417      -19.1687102032  MEMB      58              0.0000000000
      7889        58  DOPC      O12           -12.1110140797        6.4289001081      -19.4211403303  MEMB      58              0.0000000000
      7890        58  DOPC      O11           -13.1938173136        6.3533951038      -17.1931888020  MEMB      58              0.0000000000
      7891        58  DOPC      C1            -13.0094348895        5.8299556937      -15.8659835332  MEMB      58              0.0000000000
      7892        58  DOPC      HA            -11.9660196093        5.4725051058      -15.7014822766  MEMB      58              0.0000000000
      7893        58  DOPC      HB            -13.6905559604        4.9558158782      -15.7428352731  MEMB      58              0.0000000000
      7894        58  DOPC      C2            -13.3494397346        6.8065549814      -14.6682948188  MEMB      58              0.0000000000
      7895        58  DOPC      HS            -14.3174498928        7.3152235123      -14.8874624572  MEMB      58              0.0000000000
      7896        58  DOPC      O21           -12.2919960666        7.7708806979      -14.4318218344  MEMB      58              0.0000000000
      7897        58  DOPC      C21           -12.4968308829        8.7959793656      -13.5894324295  MEMB      58              0.0000000000
      7898        58  DOPC      O22           -13.5336305888        9.0932037398      -13.0393334639  MEMB      58              0.0000000000
      7899        58  DOPC      C22           -11.2086523974        9.6170222650      -13.5083247662  MEMB      58              0.0000000000
      7900        58  DOPC      H2R           -11.3954802432       10.4921354875      -12.8514346248  MEMB      58              0.0000000000
      7901        58  DOPC      H2S           -11.0132039931        9.9827161713      -14.5385827856  MEMB      58              0.0000000000
      7902        58  DOPC      C3            -13.5343137977        5.9043121078      -13.4178425845  MEMB      58              0.0000000000
      7903        58  DOPC      HX            -12.5274160694        5.4835703592      -13.1720371627  MEMB      58              0.0000000000
      7904        58  DOPC      HY            -14.2086769848        5.0596254795      -13.6772776863  MEMB      58              0.0000000000
      7905        58  DOPC      O31           -14.1210365386        6.6482038121      -12.3457209466  MEMB      58              0.0000000000
      7906        58  DOPC      C31           -13.8091604970        6.2558060983      -11.1374775977  MEMB      58              0.0000000000
      7907        58  DOPC      O32           -13.1890163249        5.2444240384      -10.8575423109  MEMB      58              0.0000000000
      7908        58  DOPC      C32           -14.4410129506        7.2225464270      -10.1478045712  MEMB      58              0.0000000000
      7909        58  DOPC      H2X           -13.8294132566        8.1468231823      -10.1419396942  MEMB      58              0.0000000000
      7910        58  DOPC      H2Y           -15.4410360277        7.4956094791      -10.5498110348  MEMB      58              0.0000000000
      7911        58  DOPC      C23            -9.9853758138        8.8099121526      -13.0047623598  MEMB      58              0.0000000000
      7912        58  DOPC      H3R            -9.0713730625        9.2671149469      -13.4476872535  MEMB      58              0.0000000000
      7913        58  DOPC      H3S           -10.0251088478        7.7562110854      -13.3608869559  MEMB      58              0.0000000000
      7914        58  DOPC      C24            -9.8117742948        8.8530102446      -11.4795885014  MEMB      58              0.0000000000
      7915        58  DOPC      H4R            -9.9020963651        9.9081767861      -11.1375867169  MEMB      58              0.0000000000
      7916        58  DOPC      H4S            -8.7930396495        8.4979866274      -11.2120899533  MEMB      58              0.0000000000
      7917        58  DOPC      C25           -10.8428465675        7.9975562609      -10.7413490587  MEMB      58              0.0000000000
      7918        58  DOPC      H5R           -10.8415017931        6.9691600058      -11.1739755814  MEMB      58              0.0000000000
      7919        58  DOPC      H5S           -11.8448351954        8.4444697571      -10.9145458019  MEMB      58              0.0000000000
      7920        58  DOPC      C26           -10.6167675018        7.8806170725       -9.2287211211  MEMB      58              0.0000000000
      7921        58  DOPC      H6R            -9.8759529223        7.0737451112       -9.0421006327  MEMB      58              0.0000000000
      7922        58  DOPC      H6S           -11.5743976504        7.5342905837       -8.7776167301  MEMB      58              0.0000000000
      7923        58  DOPC      C27           -10.1749939863        9.1739271745       -8.5145271600  MEMB      58              0.0000000000
      7924        58  DOPC      H7R           -10.7081222851       10.0463286268       -8.9502441478  MEMB      58              0.0000000000
      7925        58  DOPC      H7S            -9.0815794750        9.3265001521       -8.6612687278  MEMB      58              0.0000000000
      7926        58  DOPC      C28           -10.5273279500        9.0760319362       -7.0164080281  MEMB      58              0.0000000000
      7927        58  DOPC      H8R           -10.0654438888        8.1347401976       -6.6567460154  MEMB      58              0.0000000000
      7928        58  DOPC      H8S           -11.6252308754        8.8939695251       -6.9920446234  MEMB      58              0.0000000000
      7929        58  DOPC      C29           -10.1528111376       10.2107141748       -6.0818617102  MEMB      58              0.0000000000
      7930        58  DOPC      H9R            -9.1627123501       10.6721169825       -6.2364387306  MEMB      58              0.0000000000
      7931        58  DOPC      C210          -10.9320096213       10.6356415919       -5.0618190030  MEMB      58              0.0000000000
      7932        58  DOPC      H10R          -10.5843276626       11.4377981467       -4.3920215753  MEMB      58              0.0000000000
      7933        58  DOPC      C211          -12.2718822580       10.0205700109       -4.7397459194  MEMB      58              0.0000000000
      7934        58  DOPC      H11R          -12.1922161819        8.9362380015       -4.9735874318  MEMB      58              0.0000000000
      7935        58  DOPC      H11S          -13.0372405814       10.4511624850       -5.4154185352  MEMB      58              0.0000000000
      7936        58  DOPC      C212          -12.8198699732       10.0290661897       -3.2952541699  MEMB      58              0.0000000000
      7937        58  DOPC      H12R          -12.0126761949       10.3877056019       -2.6126997722  MEMB      58              0.0000000000
      7938        58  DOPC      H12S          -13.0418512769        8.9885688386       -2.9801161023  MEMB      58              0.0000000000
      7939        58  DOPC      C213          -14.0634139089       10.8927426327       -2.9793021392  MEMB      58              0.0000000000
      7940        58  DOPC      H13R          -13.6596511055       11.9303932396       -3.0353424404  MEMB      58              0.0000000000
      7941        58  DOPC      H13S          -14.3055971199       10.7146488620       -1.9290431350  MEMB      58              0.0000000000
      7942        58  DOPC      C214          -15.3677843557       10.9517275382       -3.8320222352  MEMB      58              0.0000000000
      7943        58  DOPC      H14R          -15.0672387298       11.0582549484       -4.8865111986  MEMB      58              0.0000000000
      7944        58  DOPC      H14S          -15.7891529563       11.9405430073       -3.5374399489  MEMB      58              0.0000000000
      7945        58  DOPC      C215          -16.6672830654       10.0878299244       -3.6486419868  MEMB      58              0.0000000000
      7946        58  DOPC      H15R          -16.8404728640        9.4265623818       -4.4986122236  MEMB      58              0.0000000000
      7947        58  DOPC      H15S          -17.5276565375       10.7848762307       -3.7665117758  MEMB      58              0.0000000000
      7948        58  DOPC      C216          -16.8362157528        9.3361199886       -2.3146407877  MEMB      58              0.0000000000
      7949        58  DOPC      H16R          -17.3261624617       10.1065465166       -1.7369450643  MEMB      58              0.0000000000
      7950        58  DOPC      H16S          -15.8416760792        9.1044775434       -1.8864748279  MEMB      58              0.0000000000
      7951        58  DOPC      C217          -17.7248352124        8.0873209567       -2.1074057881  MEMB      58              0.0000000000
      7952        58  DOPC      H17R          -17.7091543410        7.8082157679       -1.0317850777  MEMB      58              0.0000000000
      7953        58  DOPC      H17S          -17.2736339078        7.2091407124       -2.5806465302  MEMB      58              0.0000000000
      7954        58  DOPC      C218          -19.1604244891        8.2065517987       -2.5792738734  MEMB      58              0.0000000000
      7955        58  DOPC      H18R          -19.7085238094        8.9663553287       -1.9904225116  MEMB      58              0.0000000000
      7956        58  DOPC      H18S          -19.7009638390        7.2405036535       -2.5028356503  MEMB      58              0.0000000000
      7957        58  DOPC      H18T          -19.1304944771        8.5061983285       -3.6459221811  MEMB      58              0.0000000000
      7958        58  DOPC      C33           -14.5817181901        6.5993975251       -8.7357481862  MEMB      58              0.0000000000
      7959        58  DOPC      H3X           -13.9927217793        7.1986313452       -8.0120786203  MEMB      58              0.0000000000
      7960        58  DOPC      H3Y           -14.1162813055        5.5920777339       -8.7182285759  MEMB      58              0.0000000000
      7961        58  DOPC      C34           -16.0622484487        6.4703583656       -8.3013875089  MEMB      58              0.0000000000
      7962        58  DOPC      H4X           -16.6444940621        5.9870023445       -9.1022321366  MEMB      58              0.0000000000
      7963        58  DOPC      H4Y           -16.5149350666        7.4691715542       -8.2117300173  MEMB      58              0.0000000000
      7964        58  DOPC      C35           -16.3246807928        5.6781828839       -7.0036598173  MEMB      58              0.0000000000
      7965        58  DOPC      H5X           -15.4722806758        5.8726349278       -6.3252980109  MEMB      58              0.0000000000
      7966        58  DOPC      H5Y           -16.3146048522        4.5986811955       -7.2466876630  MEMB      58              0.0000000000
      7967        58  DOPC      C36           -17.7252336131        6.0194898745       -6.3572326849  MEMB      58              0.0000000000
      7968        58  DOPC      H6X           -17.1889865123        5.3486888535       -5.6084650211  MEMB      58              0.0000000000
      7969        58  DOPC      H6Y           -17.5402621855        7.1248920184       -6.3160345824  MEMB      58              0.0000000000
      7970        58  DOPC      C37           -18.5521121250        6.0117000933       -5.0129004770  MEMB      58              0.0000000000
      7971        58  DOPC      H7X           -18.0034846296        6.5145403995       -4.2154501096  MEMB      58              0.0000000000
      7972        58  DOPC      H7Y           -19.4133338903        6.6817003703       -5.2290102107  MEMB      58              0.0000000000
      7973        58  DOPC      C38           -19.1409285875        4.6986370582       -4.4419289795  MEMB      58              0.0000000000
      7974        58  DOPC      H8X           -19.5397024877        4.0911570670       -5.2670757615  MEMB      58              0.0000000000
      7975        58  DOPC      H8Y           -20.0352600284        5.0366353694       -3.8649031473  MEMB      58              0.0000000000
      7976        58  DOPC      C39           -18.3604371118        3.8595051937       -3.4603221039  MEMB      58              0.0000000000
      7977        58  DOPC      H9X           -18.6234550770        4.1027891698       -2.4230499254  MEMB      58              0.0000000000
      7978        58  DOPC      C310          -17.4092314778        2.9219526556       -3.6500100442  MEMB      58              0.0000000000
      7979        58  DOPC      H10X          -17.0278077561        2.3872256586       -2.7690563497  MEMB      58              0.0000000000
      7980        58  DOPC      C311          -16.7913941014        2.3928991741       -4.9124638723  MEMB      58              0.0000000000
      7981        58  DOPC      H11X          -16.9752808710        3.0747427196       -5.7633244236  MEMB      58              0.0000000000
      7982        58  DOPC      H11Y          -17.2863744525        1.4291277187       -5.1686212883  MEMB      58              0.0000000000
      7983        58  DOPC      C312          -15.2682629376        2.1128843150       -4.7153477781  MEMB      58              0.0000000000
      7984        58  DOPC      H12X          -15.0611755910        1.1090198630       -5.1518018656  MEMB      58              0.0000000000
      7985        58  DOPC      H12Y          -15.0114640044        2.0332708249       -3.6378036593  MEMB      58              0.0000000000
      7986        58  DOPC      C313          -14.3078740768        3.1399142504       -5.3668350169  MEMB      58              0.0000000000
      7987        58  DOPC      H13X          -13.9246419803        2.6849256803       -6.3039328182  MEMB      58              0.0000000000
      7988        58  DOPC      H13Y          -14.9303031566        3.9914747698       -5.6869542650  MEMB      58              0.0000000000
      7989        58  DOPC      C314          -13.1350147603        3.7039810199       -4.4879057726  MEMB      58              0.0000000000
      7990        58  DOPC      H14X          -13.5481713651        3.9033289710       -3.4785793958  MEMB      58              0.0000000000
      7991        58  DOPC      H14Y          -12.3808156848        2.9042448106       -4.3588539974  MEMB      58              0.0000000000
      7992        58  DOPC      C315          -12.4688440112        5.0078564489       -5.0717077618  MEMB      58              0.0000000000
      7993        58  DOPC      H15X          -13.2527805504        5.4728340513       -5.7162828893  MEMB      58              0.0000000000
      7994        58  DOPC      H15Y          -11.6583796212        4.7840746809       -5.7844730415  MEMB      58              0.0000000000
      7995        58  DOPC      C316          -11.9418821379        6.2011295699       -4.2032677583  MEMB      58              0.0000000000
      7996        58  DOPC      H16X          -11.3291662903        6.8175421485       -4.9028608901  MEMB      58              0.0000000000
      7997        58  DOPC      H16Y          -12.7838861961        6.8372354282       -3.8790547927  MEMB      58              0.0000000000
      7998        58  DOPC      C317          -11.0955187265        6.0213420907       -2.9390884431  MEMB      58              0.0000000000
      7999        58  DOPC      H17X          -11.7170706825        5.5537665259       -2.1476243752  MEMB      58              0.0000000000
      8000        58  DOPC      H17Y          -10.2444495965        5.3550112516       -3.1519314306  MEMB      58              0.0000000000
      8001        58  DOPC      C318          -10.5310134314        7.3358452119       -2.3797606634  MEMB      58              0.0000000000
      8002        58  DOPC      H18X          -11.3536289422        8.0056933088       -2.0647332730  MEMB      58              0.0000000000
      8003        58  DOPC      H18Y           -9.8742679016        7.1518400693       -1.5032499421  MEMB      58              0.0000000000
      8004        58  DOPC      H18Z           -9.9282585925        7.8667762868       -3.1434034162  MEMB      58              0.0000000000
      8005        59  DOPC      N              13.4822184203       -7.3071246887      -17.7501396819  MEMB      59              0.0000000000
      8006        59  DOPC      C12            12.0976004152       -6.8111082640      -18.1109603433  MEMB      59              0.0000000000
      8007        59  DOPC      H12A           11.8560671687       -5.9913086201      -17.4493629528  MEMB      59              0.0000000000
      8008        59  DOPC      H12B           11.3727191719       -7.5944645774      -17.8934898092  MEMB      59              0.0000000000
      8009        59  DOPC      C13            14.5272596233       -6.6271600156      -18.5872981539  MEMB      59              0.0000000000
      8010        59  DOPC      H13A           14.3999930137       -6.9169121461      -19.6344944675  MEMB      59              0.0000000000
      8011        59  DOPC      H13B           14.3958284991       -5.5497619683      -18.5680776862  MEMB      59              0.0000000000
      8012        59  DOPC      H13C           15.5512906014       -6.8613259542      -18.3121329752  MEMB      59              0.0000000000
      8013        59  DOPC      C14            13.6135162582       -8.7810905167      -17.9857100722  MEMB      59              0.0000000000
      8014        59  DOPC      H14A           12.9758279911       -9.3533448451      -17.3229134849  MEMB      59              0.0000000000
      8015        59  DOPC      H14B           13.3384589896       -9.0144178767      -19.0127656317  MEMB      59              0.0000000000
      8016        59  DOPC      H14C           14.6425394577       -9.1131753912      -17.8481478519  MEMB      59              0.0000000000
      8017        59  DOPC      C15            13.7778424265       -7.0113212192      -16.3155595429  MEMB      59              0.0000000000
      8018        59  DOPC      H15A           12.9350988145       -7.1809128250      -15.6562561254  MEMB      59              0.0000000000
      8019        59  DOPC      H15B           14.1014973282       -5.9808904543      -16.2145794623  MEMB      59              0.0000000000
      8020        59  DOPC      H15C           14.5903745759       -7.6393985241      -15.9735961784  MEMB      59              0.0000000000
      8021        59  DOPC      C11            11.8365551932       -6.3297042831      -19.5597550987  MEMB      59              0.0000000000
      8022        59  DOPC      H11A           10.8844946361       -5.7402513000      -19.5404959155  MEMB      59              0.0000000000
      8023        59  DOPC      H11B           12.6035125286       -5.5827125641      -19.8561794216  MEMB      59              0.0000000000
      8024        59  DOPC      P              10.3912574163       -7.9184719813      -21.0103678776  MEMB      59              0.0000000000
      8025        59  DOPC      O13            10.5395370388       -9.0247164844      -21.9845186639  MEMB      59              0.0000000000
      8026        59  DOPC      O14             9.6359664181       -6.7312113989      -21.4709413825  MEMB      59              0.0000000000
      8027        59  DOPC      O12            11.8211462476       -7.4223149706      -20.5028547758  MEMB      59              0.0000000000
      8028        59  DOPC      O11             9.7526875627       -8.3993352546      -19.6861988383  MEMB      59              0.0000000000
      8029        59  DOPC      C1             10.1847271681       -9.4558362701      -18.8703741991  MEMB      59              0.0000000000
      8030        59  DOPC      HA             11.2461292843       -9.3652370406      -18.5739310904  MEMB      59              0.0000000000
      8031        59  DOPC      HB             10.0335968791      -10.4288686000      -19.3833379080  MEMB      59              0.0000000000
      8032        59  DOPC      C2              9.2940919217       -9.3473101470      -17.6400059221  MEMB      59              0.0000000000
      8033        59  DOPC      HS              8.2602017949       -9.3473970872      -18.0308467934  MEMB      59              0.0000000000
      8034        59  DOPC      O21             9.6146783080       -8.1179879675      -16.9533214878  MEMB      59              0.0000000000
      8035        59  DOPC      C21             8.6341116661       -7.2020072289      -16.9414180946  MEMB      59              0.0000000000
      8036        59  DOPC      O22             7.5164692829       -7.3417272950      -17.4005096418  MEMB      59              0.0000000000
      8037        59  DOPC      C22             9.1000737444       -6.0098904632      -16.0902215483  MEMB      59              0.0000000000
      8038        59  DOPC      H2R             8.8635587026       -5.0606986800      -16.6078893459  MEMB      59              0.0000000000
      8039        59  DOPC      H2S            10.2017094858       -6.0719119826      -15.9596198996  MEMB      59              0.0000000000
      8040        59  DOPC      C3              9.4394541280      -10.5632338658      -16.6976521922  MEMB      59              0.0000000000
      8041        59  DOPC      HX              8.9522361492      -11.4286534235      -17.2068329959  MEMB      59              0.0000000000
      8042        59  DOPC      HY              8.8596828799      -10.3177065618      -15.7774600745  MEMB      59              0.0000000000
      8043        59  DOPC      O31            10.8110848482      -10.8915026565      -16.3742314440  MEMB      59              0.0000000000
      8044        59  DOPC      C31            10.7903136605      -11.8483813891      -15.4374755762  MEMB      59              0.0000000000
      8045        59  DOPC      O32             9.7625929235      -12.3446992935      -15.0107165148  MEMB      59              0.0000000000
      8046        59  DOPC      C32            12.1916294887      -12.1159755743      -14.9183001028  MEMB      59              0.0000000000
      8047        59  DOPC      H2X            12.2844213372      -13.1773608830      -14.6189138736  MEMB      59              0.0000000000
      8048        59  DOPC      H2Y            12.9133970689      -11.9219805106      -15.7368231909  MEMB      59              0.0000000000
      8049        59  DOPC      C23             8.4479948551       -6.1011479179      -14.6878302377  MEMB      59              0.0000000000
      8050        59  DOPC      H3R             7.3727471130       -5.8169337176      -14.7342176383  MEMB      59              0.0000000000
      8051        59  DOPC      H3S             8.9600487928       -5.4044635164      -13.9831948912  MEMB      59              0.0000000000
      8052        59  DOPC      C24             8.5963060687       -7.5380909165      -14.1785714528  MEMB      59              0.0000000000
      8053        59  DOPC      H4R             9.6687739405       -7.8377961616      -14.2652882061  MEMB      59              0.0000000000
      8054        59  DOPC      H4S             8.0013539055       -8.2178466511      -14.8230633133  MEMB      59              0.0000000000
      8055        59  DOPC      C25             8.1166041731       -7.8714822542      -12.7768594383  MEMB      59              0.0000000000
      8056        59  DOPC      H5R             7.0362836198       -7.6406657012      -12.6469483832  MEMB      59              0.0000000000
      8057        59  DOPC      H5S             8.6976222900       -7.2736077609      -12.0432054321  MEMB      59              0.0000000000
      8058        59  DOPC      C26             8.3500676938       -9.3794295623      -12.5936360532  MEMB      59              0.0000000000
      8059        59  DOPC      H6R             9.4243600341       -9.5948598471      -12.7967893761  MEMB      59              0.0000000000
      8060        59  DOPC      H6S             7.7775154800       -9.9303201142      -13.3611556913  MEMB      59              0.0000000000
      8061        59  DOPC      C27             7.9941066288       -9.9386735878      -11.2184659384  MEMB      59              0.0000000000
      8062        59  DOPC      H7R             8.3811817667      -10.9845132078      -11.1689632979  MEMB      59              0.0000000000
      8063        59  DOPC      H7S             6.8919125878       -9.9868075300      -11.0936539269  MEMB      59              0.0000000000
      8064        59  DOPC      C28             8.5982981731       -9.1173646410      -10.0834155980  MEMB      59              0.0000000000
      8065        59  DOPC      H8R             8.2256208349       -9.4898475446       -9.1043691069  MEMB      59              0.0000000000
      8066        59  DOPC      H8S             8.2610286437       -8.0649240673      -10.1491269926  MEMB      59              0.0000000000
      8067        59  DOPC      C29            10.0910630359       -9.1883901919      -10.2217601143  MEMB      59              0.0000000000
      8068        59  DOPC      H9R            10.5135456817       -8.4489089514      -10.9186813073  MEMB      59              0.0000000000
      8069        59  DOPC      C210           10.8839426919      -10.1111939982       -9.6575637527  MEMB      59              0.0000000000
      8070        59  DOPC      H10R           11.9763388118      -10.0464428275       -9.7854603498  MEMB      59              0.0000000000
      8071        59  DOPC      C211           10.3624305177      -11.2199271350       -8.7928071719  MEMB      59              0.0000000000
      8072        59  DOPC      H11R           10.5085974529      -12.2114305492       -9.2748549211  MEMB      59              0.0000000000
      8073        59  DOPC      H11S            9.2752738101      -11.1038569054       -8.6448577645  MEMB      59              0.0000000000
      8074        59  DOPC      C212           10.8917195189      -11.2194762373       -7.3645455271  MEMB      59              0.0000000000
      8075        59  DOPC      H12R           10.1208922796      -11.7575497983       -6.7621411720  MEMB      59              0.0000000000
      8076        59  DOPC      H12S           10.9647463305      -10.1918437807       -6.9608056737  MEMB      59              0.0000000000
      8077        59  DOPC      C213           12.2115805278      -11.9634211414       -7.2177435698  MEMB      59              0.0000000000
      8078        59  DOPC      H13R           12.9911400911      -11.5541544856       -7.8969495934  MEMB      59              0.0000000000
      8079        59  DOPC      H13S           11.9859078603      -13.0018289447       -7.5284065196  MEMB      59              0.0000000000
      8080        59  DOPC      C214           12.7358631691      -11.9690638584       -5.7823890802  MEMB      59              0.0000000000
      8081        59  DOPC      H14R           13.4341079961      -11.1133888939       -5.6606381477  MEMB      59              0.0000000000
      8082        59  DOPC      H14S           13.3317431665      -12.8902444117       -5.6146318689  MEMB      59              0.0000000000
      8083        59  DOPC      C215           11.6229904170      -11.8851214358       -4.7282049394  MEMB      59              0.0000000000
      8084        59  DOPC      H15R           10.8257236467      -12.6232000065       -4.9639538205  MEMB      59              0.0000000000
      8085        59  DOPC      H15S           11.1644199948      -10.8692241927       -4.7372072513  MEMB      59              0.0000000000
      8086        59  DOPC      C216           12.1532702115      -12.1537621462       -3.3307719208  MEMB      59              0.0000000000
      8087        59  DOPC      H16R           12.7310060326      -13.1033021682       -3.3033355424  MEMB      59              0.0000000000
      8088        59  DOPC      H16S           11.3224082803      -12.2798377309       -2.6099132337  MEMB      59              0.0000000000
      8089        59  DOPC      C217           13.0234954226      -10.9978440557       -2.8909021937  MEMB      59              0.0000000000
      8090        59  DOPC      H17R           12.3666102652      -10.1340136411       -2.6332048441  MEMB      59              0.0000000000
      8091        59  DOPC      H17S           13.7187789790      -10.6709561611       -3.6913818443  MEMB      59              0.0000000000
      8092        59  DOPC      C218           13.8454675143      -11.3891815973       -1.7043720002  MEMB      59              0.0000000000
      8093        59  DOPC      H18R           13.1388177893      -11.6546183443       -0.8875844290  MEMB      59              0.0000000000
      8094        59  DOPC      H18S           14.4780402152      -10.5239191712       -1.4053735127  MEMB      59              0.0000000000
      8095        59  DOPC      H18T           14.5080885741      -12.2599971264       -1.9017104624  MEMB      59              0.0000000000
      8096        59  DOPC      C33            12.4756216392      -11.2174665189      -13.7041572708  MEMB      59              0.0000000000
      8097        59  DOPC      H3X            12.0232235533      -11.6611834745      -12.7883406532  MEMB      59              0.0000000000
      8098        59  DOPC      H3Y            11.9859600025      -10.2287496946      -13.8549540428  MEMB      59              0.0000000000
      8099        59  DOPC      C34            13.9748338336      -10.9864183985      -13.5084626710  MEMB      59              0.0000000000
      8100        59  DOPC      H4X            14.3776396216      -10.4289708785      -14.3838569194  MEMB      59              0.0000000000
      8101        59  DOPC      H4Y            14.4872898193      -11.9757820964      -13.4836911652  MEMB      59              0.0000000000
      8102        59  DOPC      C35            14.3013984076      -10.2326508190      -12.2119466372  MEMB      59              0.0000000000
      8103        59  DOPC      H5X            15.3933668968      -10.0227448762      -12.1755205764  MEMB      59              0.0000000000
      8104        59  DOPC      H5Y            14.0616102392      -10.9099829582      -11.3567776976  MEMB      59              0.0000000000
      8105        59  DOPC      C36            13.5215056124       -8.9283274788      -11.9716468066  MEMB      59              0.0000000000
      8106        59  DOPC      H6X            12.4627056050       -9.1878675036      -11.7529007628  MEMB      59              0.0000000000
      8107        59  DOPC      H6Y            13.9484186390       -8.4536503967      -11.0604100830  MEMB      59              0.0000000000
      8108        59  DOPC      C37            13.5009992430       -7.8960773878      -13.1064841922  MEMB      59              0.0000000000
      8109        59  DOPC      H7X            14.5369031928       -7.6158989420      -13.3841470137  MEMB      59              0.0000000000
      8110        59  DOPC      H7Y            13.0225138211       -8.3726030498      -13.9900472231  MEMB      59              0.0000000000
      8111        59  DOPC      C38            12.6681776497       -6.6326595897      -12.7669975806  MEMB      59              0.0000000000
      8112        59  DOPC      H8X            11.6552349470       -6.9538003325      -12.4359592810  MEMB      59              0.0000000000
      8113        59  DOPC      H8Y            12.5114070317       -6.0627252383      -13.7106441278  MEMB      59              0.0000000000
      8114        59  DOPC      C39            13.2782551817       -5.6950034543      -11.7534351169  MEMB      59              0.0000000000
      8115        59  DOPC      H9X            13.8505036206       -4.8624837382      -12.1925637672  MEMB      59              0.0000000000
      8116        59  DOPC      C310           13.1687088211       -5.7445237058      -10.4109228600  MEMB      59              0.0000000000
      8117        59  DOPC      H10X           13.6657845108       -4.9666918710       -9.8133920520  MEMB      59              0.0000000000
      8118        59  DOPC      C311           12.4206004697       -6.7408372320       -9.5649505682  MEMB      59              0.0000000000
      8119        59  DOPC      H11X           13.0917019987       -7.0586662156       -8.7472736559  MEMB      59              0.0000000000
      8120        59  DOPC      H11Y           12.2005804157       -7.6569283290      -10.1312908887  MEMB      59              0.0000000000
      8121        59  DOPC      C312           11.0986088095       -6.1930231133       -8.9941388660  MEMB      59              0.0000000000
      8122        59  DOPC      H12X           10.3173430056       -6.2660421645       -9.7867664966  MEMB      59              0.0000000000
      8123        59  DOPC      H12Y           11.2205521766       -5.1135235356       -8.7905486524  MEMB      59              0.0000000000
      8124        59  DOPC      C313           10.5347361499       -6.8730569969       -7.7220079047  MEMB      59              0.0000000000
      8125        59  DOPC      H13X            9.8975856935       -6.1383038681       -7.1945622510  MEMB      59              0.0000000000
      8126        59  DOPC      H13Y            9.8196608506       -7.6607960832       -8.0474906662  MEMB      59              0.0000000000
      8127        59  DOPC      C314           11.5079764862       -7.5902111737       -6.7517498640  MEMB      59              0.0000000000
      8128        59  DOPC      H14X           10.8868169647       -8.0459736828       -5.9443705793  MEMB      59              0.0000000000
      8129        59  DOPC      H14Y           11.9745653071       -8.4227403636       -7.3215157452  MEMB      59              0.0000000000
      8130        59  DOPC      C315           12.6744670413       -6.8350645798       -6.0837662405  MEMB      59              0.0000000000
      8131        59  DOPC      H15X           12.3505592085       -5.9236632988       -5.5698147767  MEMB      59              0.0000000000
      8132        59  DOPC      H15Y           13.4146310085       -6.4846024930       -6.8277504755  MEMB      59              0.0000000000
      8133        59  DOPC      C316           13.3601385860       -7.6791961808       -4.9926635690  MEMB      59              0.0000000000
      8134        59  DOPC      H16X           12.7560678663       -8.5949462563       -4.8018788235  MEMB      59              0.0000000000
      8135        59  DOPC      H16Y           14.3593010734       -7.9989920045       -5.3578764639  MEMB      59              0.0000000000
      8136        59  DOPC      C317           13.5011858790       -6.9028992070       -3.6726245204  MEMB      59              0.0000000000
      8137        59  DOPC      H17X           14.0863858085       -5.9775811702       -3.8762711040  MEMB      59              0.0000000000
      8138        59  DOPC      H17Y           12.4873224660       -6.5896937564       -3.3363401992  MEMB      59              0.0000000000
      8139        59  DOPC      C318           14.1582463269       -7.6828966854       -2.5354761198  MEMB      59              0.0000000000
      8140        59  DOPC      H18X           13.4227776947       -8.3664334707       -2.0619876591  MEMB      59              0.0000000000
      8141        59  DOPC      H18Y           15.0085501583       -8.2871218325       -2.9188830406  MEMB      59              0.0000000000
      8142        59  DOPC      H18Z           14.5363749736       -6.9933198348       -1.7509654266  MEMB      59              0.0000000000
      8143        60  DOPC      N              11.9251517762        7.9404562310      -21.0621992843  MEMB      60              0.0000000000
      8144        60  DOPC      C12            13.0567102635        8.9552652031      -20.9495170680  MEMB      60              0.0000000000
      8145        60  DOPC      H12A           12.7755394077        9.8975553095      -21.3861616195  MEMB      60              0.0000000000
      8146        60  DOPC      H12B           13.9151119210        8.5683097068      -21.5083353262  MEMB      60              0.0000000000
      8147        60  DOPC      C13            11.2222820546        8.0921076780      -22.3574361471  MEMB      60              0.0000000000
      8148        60  DOPC      H13A           10.9553434297        9.1186065398      -22.5781623055  MEMB      60              0.0000000000
      8149        60  DOPC      H13B           11.8613183804        7.7380197987      -23.1575766245  MEMB      60              0.0000000000
      8150        60  DOPC      H13C           10.3035538961        7.5090376571      -22.3876334824  MEMB      60              0.0000000000
      8151        60  DOPC      C14            10.9725176094        8.0674251428      -19.9256821561  MEMB      60              0.0000000000
      8152        60  DOPC      H14A           10.4331048502        8.9990939176      -19.9709832234  MEMB      60              0.0000000000
      8153        60  DOPC      H14B           10.2827509527        7.2356088511      -19.9348388030  MEMB      60              0.0000000000
      8154        60  DOPC      H14C           11.5355977152        8.0498545356      -18.9868064065  MEMB      60              0.0000000000
      8155        60  DOPC      C15            12.5737188145        6.5847160109      -21.0348919829  MEMB      60              0.0000000000
      8156        60  DOPC      H15A           13.3352143553        6.5511177666      -21.8076269176  MEMB      60              0.0000000000
      8157        60  DOPC      H15B           11.8850820411        5.7566348486      -21.1243201897  MEMB      60              0.0000000000
      8158        60  DOPC      H15C           13.1606916422        6.5096880737      -20.1165000703  MEMB      60              0.0000000000
      8159        60  DOPC      C11            13.6040223950        9.2237819839      -19.5406281463  MEMB      60              0.0000000000
      8160        60  DOPC      H11A           14.4134056672        9.9889446957      -19.6129256869  MEMB      60              0.0000000000
      8161        60  DOPC      H11B           12.8104927263        9.6505029640      -18.8811056042  MEMB      60              0.0000000000
      8162        60  DOPC      P              14.5813420602        7.9337357596      -17.5326842242  MEMB      60              0.0000000000
      8163        60  DOPC      O13            14.1258557384        9.1777045649      -16.8898744036  MEMB      60              0.0000000000
      8164        60  DOPC      O14            16.0102167422        7.5485461069      -17.4319800708  MEMB      60              0.0000000000
      8165        60  DOPC      O12            14.1341728420        8.0027081918      -19.0382104706  MEMB      60              0.0000000000
      8166        60  DOPC      O11            13.6951194148        6.7323626346      -16.9836658521  MEMB      60              0.0000000000
      8167        60  DOPC      C1             13.0194413223        5.7686218718      -17.7906064024  MEMB      60              0.0000000000
      8168        60  DOPC      HA             13.6786872642        5.4211872036      -18.6133644706  MEMB      60              0.0000000000
      8169        60  DOPC      HB             12.1134050452        6.2273708754      -18.2325377758  MEMB      60              0.0000000000
      8170        60  DOPC      C2             12.5398807980        4.4959460567      -17.0025524039  MEMB      60              0.0000000000
      8171        60  DOPC      HS             12.0799225412        3.7943437185      -17.7348260875  MEMB      60              0.0000000000
      8172        60  DOPC      O21            11.5484654166        4.8800918807      -16.0223917630  MEMB      60              0.0000000000
      8173        60  DOPC      C21            11.0657528391        3.9018912831      -15.2572089506  MEMB      60              0.0000000000
      8174        60  DOPC      O22            11.1017285965        2.7147871720      -15.4882810487  MEMB      60              0.0000000000
      8175        60  DOPC      C22            10.6392593052        4.5054386501      -13.9415661508  MEMB      60              0.0000000000
      8176        60  DOPC      H2R             9.7968967758        3.8947158230      -13.5614040404  MEMB      60              0.0000000000
      8177        60  DOPC      H2S            10.3179932086        5.5581285101      -14.0713276066  MEMB      60              0.0000000000
      8178        60  DOPC      C3             13.7526562956        3.7669274289      -16.3356208521  MEMB      60              0.0000000000
      8179        60  DOPC      HX             14.4055504941        3.4051499055      -17.1596253447  MEMB      60              0.0000000000
      8180        60  DOPC      HY             13.4191964589        2.8488102369      -15.8105506277  MEMB      60              0.0000000000
      8181        60  DOPC      O31            14.4339210300        4.6147737460      -15.3908243175  MEMB      60              0.0000000000
      8182        60  DOPC      C31            15.7020084162        4.9187889349      -15.6533884315  MEMB      60              0.0000000000
      8183        60  DOPC      O32            16.3481698891        4.5135117377      -16.6081469356  MEMB      60              0.0000000000
      8184        60  DOPC      C32            16.2346144389        5.7574464139      -14.4898183794  MEMB      60              0.0000000000
      8185        60  DOPC      H2X            17.2577518293        6.0974937343      -14.7445025356  MEMB      60              0.0000000000
      8186        60  DOPC      H2Y            15.5770685747        6.6452468209      -14.3765301310  MEMB      60              0.0000000000
      8187        60  DOPC      C23            11.8385575979        4.4065850445      -12.9878462070  MEMB      60              0.0000000000
      8188        60  DOPC      H3R            12.6908836214        5.0361170046      -13.3369758494  MEMB      60              0.0000000000
      8189        60  DOPC      H3S            12.1917934971        3.3457180451      -12.9733254048  MEMB      60              0.0000000000
      8190        60  DOPC      C24            11.4495855723        4.7803256070      -11.5681439710  MEMB      60              0.0000000000
      8191        60  DOPC      H4R            12.2017560148        4.2912763034      -10.9122871441  MEMB      60              0.0000000000
      8192        60  DOPC      H4S            10.4563459527        4.3411005385      -11.3354841813  MEMB      60              0.0000000000
      8193        60  DOPC      C25            11.3768745119        6.2910582303      -11.3063736874  MEMB      60              0.0000000000
      8194        60  DOPC      H5R            10.5483752890        6.7330680544      -11.9028683123  MEMB      60              0.0000000000
      8195        60  DOPC      H5S            12.3239689337        6.7712372966      -11.6483678701  MEMB      60              0.0000000000
      8196        60  DOPC      C26            11.1866135803        6.5870427847       -9.8099271270  MEMB      60              0.0000000000
      8197        60  DOPC      H6R            10.3464318024        5.9770809943       -9.4115471461  MEMB      60              0.0000000000
      8198        60  DOPC      H6S            10.9171685693        7.6542078976       -9.6759035109  MEMB      60              0.0000000000
      8199        60  DOPC      C27            12.4920742391        6.2712355612       -9.0708598024  MEMB      60              0.0000000000
      8200        60  DOPC      H7R            13.2964992026        6.8764455369       -9.5533730083  MEMB      60              0.0000000000
      8201        60  DOPC      H7S            12.7178918827        5.1969744629       -9.2600454138  MEMB      60              0.0000000000
      8202        60  DOPC      C28            12.5310518516        6.4817849466       -7.5511706920  MEMB      60              0.0000000000
      8203        60  DOPC      H8R            11.7523186437        5.8585958755       -7.0562379947  MEMB      60              0.0000000000
      8204        60  DOPC      H8S            12.3605145041        7.5438862735       -7.2831313669  MEMB      60              0.0000000000
      8205        60  DOPC      C29            13.9147463592        6.0050214362       -7.1977302237  MEMB      60              0.0000000000
      8206        60  DOPC      H9R            14.1634568166        5.0501175004       -7.6803291091  MEMB      60              0.0000000000
      8207        60  DOPC      C210           14.8487847807        6.5719523055       -6.4234456852  MEMB      60              0.0000000000
      8208        60  DOPC      H10R           15.7986927425        6.0358726875       -6.2843064565  MEMB      60              0.0000000000
      8209        60  DOPC      C211           14.7622679840        7.8680493820       -5.6683764551  MEMB      60              0.0000000000
      8210        60  DOPC      H11R           14.0358690444        8.5789919724       -6.1176845556  MEMB      60              0.0000000000
      8211        60  DOPC      H11S           15.7588355267        8.3590039904       -5.6326392763  MEMB      60              0.0000000000
      8212        60  DOPC      C212           14.3251440927        7.4569382311       -4.2589697407  MEMB      60              0.0000000000
      8213        60  DOPC      H12R           15.0440583881        6.7142019122       -3.8633825705  MEMB      60              0.0000000000
      8214        60  DOPC      H12S           13.3144628601        6.9839460670       -4.3184980056  MEMB      60              0.0000000000
      8215        60  DOPC      C213           14.2899994230        8.5514490801       -3.1950103959  MEMB      60              0.0000000000
      8216        60  DOPC      H13R           13.6508701166        9.3595361524       -3.5788283180  MEMB      60              0.0000000000
      8217        60  DOPC      H13S           15.3048833901        8.9678023254       -3.0314038636  MEMB      60              0.0000000000
      8218        60  DOPC      C214           13.7073035223        7.9704570706       -1.8938464100  MEMB      60              0.0000000000
      8219        60  DOPC      H14R           14.4147553223        7.2315713134       -1.4606532061  MEMB      60              0.0000000000
      8220        60  DOPC      H14S           12.7912888033        7.4085853499       -2.1898394281  MEMB      60              0.0000000000
      8221        60  DOPC      C215           13.3025468299        8.9964103002       -0.8263925988  MEMB      60              0.0000000000
      8222        60  DOPC      H15R           13.2803736778        9.9995891078       -1.2996013585  MEMB      60              0.0000000000
      8223        60  DOPC      H15S           14.0931288090        9.0689033375       -0.0471634525  MEMB      60              0.0000000000
      8224        60  DOPC      C216           11.9216814620        8.6826168998       -0.1975406637  MEMB      60              0.0000000000
      8225        60  DOPC      H16R           11.4078352177        7.8470804888       -0.7143348905  MEMB      60              0.0000000000
      8226        60  DOPC      H16S           11.2388145609        9.5442104853       -0.3081355898  MEMB      60              0.0000000000
      8227        60  DOPC      C217           11.9890712630        8.4017201792        1.2980849953  MEMB      60              0.0000000000
      8228        60  DOPC      H17R           12.8002975782        9.0531037592        1.7099602999  MEMB      60              0.0000000000
      8229        60  DOPC      H17S           12.2681124699        7.3393896123        1.4795105987  MEMB      60              0.0000000000
      8230        60  DOPC      C218           10.7349256752        8.7552452292        2.0924965422  MEMB      60              0.0000000000
      8231        60  DOPC      H18R           10.0516892062        7.8934772346        2.2510860206  MEMB      60              0.0000000000
      8232        60  DOPC      H18S           10.1666617264        9.5975026459        1.6445402167  MEMB      60              0.0000000000
      8233        60  DOPC      H18T           11.1226041561        9.0984576469        3.0706869021  MEMB      60              0.0000000000
      8234        60  DOPC      C33            16.2345657734        4.8994724335      -13.2107374909  MEMB      60              0.0000000000
      8235        60  DOPC      H3X            16.9639942494        4.0699642489      -13.3684533972  MEMB      60              0.0000000000
      8236        60  DOPC      H3Y            15.2387554850        4.4271828355      -13.0458661235  MEMB      60              0.0000000000
      8237        60  DOPC      C34            16.6268406381        5.6473525435      -11.9307733032  MEMB      60              0.0000000000
      8238        60  DOPC      H4X            15.7496498089        5.6938915739      -11.2467267918  MEMB      60              0.0000000000
      8239        60  DOPC      H4Y            16.9036875692        6.6930806565      -12.1829467697  MEMB      60              0.0000000000
      8240        60  DOPC      C35            17.7983608238        4.9167065893      -11.2619149550  MEMB      60              0.0000000000
      8241        60  DOPC      H5X            18.6210709348        4.8715624431      -12.0146886303  MEMB      60              0.0000000000
      8242        60  DOPC      H5Y            17.5101764435        3.8728170333      -11.0572906382  MEMB      60              0.0000000000
      8243        60  DOPC      C36            18.3842140942        5.5817508712      -10.0125799670  MEMB      60              0.0000000000
      8244        60  DOPC      H6X            19.3145481999        5.0776115906       -9.7017214597  MEMB      60              0.0000000000
      8245        60  DOPC      H6Y            18.7161878395        6.5593003217      -10.3985673181  MEMB      60              0.0000000000
      8246        60  DOPC      C37            17.4635465054        5.7545972967       -8.7856195599  MEMB      60              0.0000000000
      8247        60  DOPC      H7X            17.8933469276        6.5551374900       -8.1560793506  MEMB      60              0.0000000000
      8248        60  DOPC      H7Y            16.4758386281        6.1304449570       -9.1314530126  MEMB      60              0.0000000000
      8249        60  DOPC      C38            17.3306137816        4.5030418069       -7.8689552069  MEMB      60              0.0000000000
      8250        60  DOPC      H8X            17.6746473768        3.6852152104       -8.4837387826  MEMB      60              0.0000000000
      8251        60  DOPC      H8Y            16.2259240932        4.3757110795       -7.7362783078  MEMB      60              0.0000000000
      8252        60  DOPC      C39            18.0540456749        4.5317595961       -6.5154405158  MEMB      60              0.0000000000
      8253        60  DOPC      H9X            18.3661939418        5.5765017481       -6.3549423962  MEMB      60              0.0000000000
      8254        60  DOPC      C310           18.5383755198        3.6578639786       -5.5458988959  MEMB      60              0.0000000000
      8255        60  DOPC      H10X           19.1413178254        4.2010891237       -4.8124284644  MEMB      60              0.0000000000
      8256        60  DOPC      C311           18.5377730572        2.1840939986       -5.0262044746  MEMB      60              0.0000000000
      8257        60  DOPC      H11X           18.8145202068        2.2449406591       -3.9661888122  MEMB      60              0.0000000000
      8258        60  DOPC      H11Y           19.4687510444        1.8071868633       -5.5213365295  MEMB      60              0.0000000000
      8259        60  DOPC      C312           17.6650336818        0.8535197053       -5.0265734370  MEMB      60              0.0000000000
      8260        60  DOPC      H12X           18.3153805830        0.0320737904       -5.4134592168  MEMB      60              0.0000000000
      8261        60  DOPC      H12Y           16.9814463037        1.0614065950       -5.8401174222  MEMB      60              0.0000000000
      8262        60  DOPC      C313           16.9853204449        0.2823846886       -3.6735729587  MEMB      60              0.0000000000
      8263        60  DOPC      H13X           17.4132729995       -0.7474555693       -3.6161806985  MEMB      60              0.0000000000
      8264        60  DOPC      H13Y           17.3919068700        0.8286495120       -2.8091572772  MEMB      60              0.0000000000
      8265        60  DOPC      C314           15.4074464170        0.0536680631       -3.3811508020  MEMB      60              0.0000000000
      8266        60  DOPC      H14X           14.7698009696       -0.1832679345       -4.2350147616  MEMB      60              0.0000000000
      8267        60  DOPC      H14Y           15.4280351145       -0.9189247023       -2.8320768270  MEMB      60              0.0000000000
      8268        60  DOPC      C315           14.4958619201        0.9865884422       -2.4639907520  MEMB      60              0.0000000000
      8269        60  DOPC      H15X           15.0654670910        1.6392711127       -1.8029074322  MEMB      60              0.0000000000
      8270        60  DOPC      H15Y           14.0813638145        0.2335152053       -1.7634609292  MEMB      60              0.0000000000
      8271        60  DOPC      C316           13.1209193415        1.5981455230       -2.9828842245  MEMB      60              0.0000000000
      8272        60  DOPC      H16X           12.9311685717        1.2866955474       -4.0269944203  MEMB      60              0.0000000000
      8273        60  DOPC      H16Y           12.3483302283        1.0801029525       -2.4117736246  MEMB      60              0.0000000000
      8274        60  DOPC      C317           12.6294905289        3.0696703890       -2.6900608287  MEMB      60              0.0000000000
      8275        60  DOPC      H17X           11.5590112623        2.9783620643       -2.4158133765  MEMB      60              0.0000000000
      8276        60  DOPC      H17Y           13.1325910533        3.4866555479       -1.7946125221  MEMB      60              0.0000000000
      8277        60  DOPC      C318           12.4713354935        4.1071727785       -3.8277118616  MEMB      60              0.0000000000
      8278        60  DOPC      H18X           13.3523293002        4.7552900516       -3.8805258191  MEMB      60              0.0000000000
      8279        60  DOPC      H18Y           12.3482673403        3.6080971936       -4.8138776315  MEMB      60              0.0000000000
      8280        60  DOPC      H18Z           11.6129155577        4.7879502851       -3.6572811548  MEMB      60              0.0000000000
      8281        61  DOPC      N              -3.4586608116      -16.4392395503      -18.8050881173  MEMB      61              0.0000000000
      8282        61  DOPC      C12            -3.0126942787      -15.1368752459      -18.1600699132  MEMB      61              0.0000000000
      8283        61  DOPC      H12A           -3.4167726427      -15.0454429860      -17.1593616405  MEMB      61              0.0000000000
      8284        61  DOPC      H12B           -3.3978702952      -14.3156928389      -18.7481314966  MEMB      61              0.0000000000
      8285        61  DOPC      C13            -4.8849318058      -16.7297444593      -18.5333245924  MEMB      61              0.0000000000
      8286        61  DOPC      H13A           -5.1922323449      -17.5214984461      -19.2033794567  MEMB      61              0.0000000000
      8287        61  DOPC      H13B           -5.0123486433      -17.0703964384      -17.5142084230  MEMB      61              0.0000000000
      8288        61  DOPC      H13C           -5.4875203643      -15.8384210953      -18.6834999874  MEMB      61              0.0000000000
      8289        61  DOPC      C14            -2.5771538965      -17.5676727543      -18.3498953392  MEMB      61              0.0000000000
      8290        61  DOPC      H14A           -1.5303093879      -17.2383746166      -18.3915992005  MEMB      61              0.0000000000
      8291        61  DOPC      H14B           -2.7450564484      -17.8685064970      -17.3285838754  MEMB      61              0.0000000000
      8292        61  DOPC      H14C           -2.6277435664      -18.4240060242      -19.0063939541  MEMB      61              0.0000000000
      8293        61  DOPC      C15            -3.2475007158      -16.3394542692      -20.2943563215  MEMB      61              0.0000000000
      8294        61  DOPC      H15A           -3.9292084317      -15.6554096356      -20.7725560727  MEMB      61              0.0000000000
      8295        61  DOPC      H15B           -3.3021964703      -17.2961527929      -20.7985239676  MEMB      61              0.0000000000
      8296        61  DOPC      H15C           -2.2211424057      -15.9862828545      -20.4442980084  MEMB      61              0.0000000000
      8297        61  DOPC      C11            -1.4902927324      -14.8953029275      -18.0825753973  MEMB      61              0.0000000000
      8298        61  DOPC      H11A           -1.3003411644      -13.8289153550      -17.8188041816  MEMB      61              0.0000000000
      8299        61  DOPC      H11B           -1.1004190814      -15.5163393282      -17.2344685391  MEMB      61              0.0000000000
      8300        61  DOPC      P               0.6322763267      -15.6232087072      -19.3654641284  MEMB      61              0.0000000000
      8301        61  DOPC      O13             1.4980842060      -14.4753471349      -19.0311888348  MEMB      61              0.0000000000
      8302        61  DOPC      O14             0.9296381339      -16.3183054533      -20.6321439069  MEMB      61              0.0000000000
      8303        61  DOPC      O12            -0.8862140287      -15.1765180512      -19.3492288859  MEMB      61              0.0000000000
      8304        61  DOPC      O11             0.6455436701      -16.6778835636      -18.1706330556  MEMB      61              0.0000000000
      8305        61  DOPC      C1              0.7536560379      -18.0993551668      -18.3391612128  MEMB      61              0.0000000000
      8306        61  DOPC      HA              1.6556970829      -18.3411243376      -18.9468027461  MEMB      61              0.0000000000
      8307        61  DOPC      HB             -0.1207869439      -18.5022422866      -18.8924791415  MEMB      61              0.0000000000
      8308        61  DOPC      C2              0.8830972441      -18.9215037529      -16.9919507616  MEMB      61              0.0000000000
      8309        61  DOPC      HS              1.0796722782      -19.9810502021      -17.2701261978  MEMB      61              0.0000000000
      8310        61  DOPC      O21            -0.3521292900      -18.8578122880      -16.2256192516  MEMB      61              0.0000000000
      8311        61  DOPC      C21            -0.3971486701      -19.5939820773      -15.0942846787  MEMB      61              0.0000000000
      8312        61  DOPC      O22             0.4482520560      -20.3961665631      -14.7501228011  MEMB      61              0.0000000000
      8313        61  DOPC      C22            -1.7280358760      -19.3520199676      -14.3732197444  MEMB      61              0.0000000000
      8314        61  DOPC      H2R            -2.5077023880      -19.9443150601      -14.8901142940  MEMB      61              0.0000000000
      8315        61  DOPC      H2S            -1.9666768006      -18.2709067556      -14.4689685109  MEMB      61              0.0000000000
      8316        61  DOPC      C3              2.1141356922      -18.3939056961      -16.1601860860  MEMB      61              0.0000000000
      8317        61  DOPC      HX              3.0006262180      -18.6127214498      -16.7961972813  MEMB      61              0.0000000000
      8318        61  DOPC      HY              2.2688823936      -18.9740081279      -15.2241543201  MEMB      61              0.0000000000
      8319        61  DOPC      O31             2.1069463154      -16.9696009761      -15.9198072406  MEMB      61              0.0000000000
      8320        61  DOPC      C31             1.3508737519      -16.5737562247      -14.9072696068  MEMB      61              0.0000000000
      8321        61  DOPC      O32             0.8228534313      -17.3111047777      -14.0974695257  MEMB      61              0.0000000000
      8322        61  DOPC      C32             1.2514003200      -15.0433895580      -14.8665744389  MEMB      61              0.0000000000
      8323        61  DOPC      H2X             2.2290242428      -14.6027407027      -15.1410466505  MEMB      61              0.0000000000
      8324        61  DOPC      H2Y             0.5309611683      -14.7694979568      -15.6611404756  MEMB      61              0.0000000000
      8325        61  DOPC      C23            -1.6720638850      -19.7249320389      -12.8683588815  MEMB      61              0.0000000000
      8326        61  DOPC      H3R            -0.9317755859      -19.0435417091      -12.3852617420  MEMB      61              0.0000000000
      8327        61  DOPC      H3S            -1.3057730476      -20.7673786311      -12.7273552159  MEMB      61              0.0000000000
      8328        61  DOPC      C24            -3.0293609178      -19.5717138878      -12.1598516139  MEMB      61              0.0000000000
      8329        61  DOPC      H4R            -3.5642937227      -20.5462376141      -12.1790176781  MEMB      61              0.0000000000
      8330        61  DOPC      H4S            -3.6465649808      -18.8381285247      -12.7265839108  MEMB      61              0.0000000000
      8331        61  DOPC      C25            -2.9355607514      -19.0629988489      -10.7082289324  MEMB      61              0.0000000000
      8332        61  DOPC      H5R            -3.9602075190      -18.9451001913      -10.2901017487  MEMB      61              0.0000000000
      8333        61  DOPC      H5S            -2.4462656469      -18.0720266956      -10.6925970367  MEMB      61              0.0000000000
      8334        61  DOPC      C26            -2.0795899733      -19.9180255601       -9.7808387442  MEMB      61              0.0000000000
      8335        61  DOPC      H6R            -1.0388364943      -19.9651081939      -10.1761236630  MEMB      61              0.0000000000
      8336        61  DOPC      H6S            -2.4854684001      -20.9532036332       -9.7805680913  MEMB      61              0.0000000000
      8337        61  DOPC      C27            -2.0118392329      -19.3685551425       -8.3437030082  MEMB      61              0.0000000000
      8338        61  DOPC      H7R            -3.0387381931      -19.1672035798       -7.9663687580  MEMB      61              0.0000000000
      8339        61  DOPC      H7S            -1.4403063925      -18.4163506344       -8.3097002898  MEMB      61              0.0000000000
      8340        61  DOPC      C28            -1.3329886714      -20.4252552591       -7.4681314097  MEMB      61              0.0000000000
      8341        61  DOPC      H8R            -0.2712412181      -20.5265359245       -7.7952181598  MEMB      61              0.0000000000
      8342        61  DOPC      H8S            -1.8597001375      -21.3446424656       -7.7614533138  MEMB      61              0.0000000000
      8343        61  DOPC      C29            -1.4212033679      -20.3391672916       -5.9734899626  MEMB      61              0.0000000000
      8344        61  DOPC      H9R            -2.1771928225      -20.9724305758       -5.4880454794  MEMB      61              0.0000000000
      8345        61  DOPC      C210           -0.6493041383      -19.5704420618       -5.2084070140  MEMB      61              0.0000000000
      8346        61  DOPC      H10R           -0.7835378570      -19.6011163718       -4.1185847894  MEMB      61              0.0000000000
      8347        61  DOPC      C211            0.4330302107      -18.6526737576       -5.6949084753  MEMB      61              0.0000000000
      8348        61  DOPC      H11R            0.1308654547      -17.6376447450       -5.3823671506  MEMB      61              0.0000000000
      8349        61  DOPC      H11S            0.5435101180      -18.6470209542       -6.8031348858  MEMB      61              0.0000000000
      8350        61  DOPC      C212            1.8026897618      -18.8870331433       -5.0601651727  MEMB      61              0.0000000000
      8351        61  DOPC      H12R            2.5030666673      -18.1064533776       -5.4352453120  MEMB      61              0.0000000000
      8352        61  DOPC      H12S            2.2123361473      -19.8706797285       -5.3885939713  MEMB      61              0.0000000000
      8353        61  DOPC      C213            1.7441501585      -18.8457021880       -3.5274369587  MEMB      61              0.0000000000
      8354        61  DOPC      H13R            2.7712835976      -18.8645251381       -3.1260387160  MEMB      61              0.0000000000
      8355        61  DOPC      H13S            1.2406287567      -19.7672569215       -3.1727099860  MEMB      61              0.0000000000
      8356        61  DOPC      C214            0.9469663059      -17.7295993872       -2.8426961594  MEMB      61              0.0000000000
      8357        61  DOPC      H14R           -0.1380187831      -17.9508948398       -2.9428975820  MEMB      61              0.0000000000
      8358        61  DOPC      H14S            1.1108107199      -16.7315923014       -3.2838255305  MEMB      61              0.0000000000
      8359        61  DOPC      C215            1.3225238027      -17.7264729500       -1.3622335461  MEMB      61              0.0000000000
      8360        61  DOPC      H15R            2.2799098082      -17.1788583717       -1.2182233389  MEMB      61              0.0000000000
      8361        61  DOPC      H15S            1.4951157459      -18.7898616117       -1.0748506000  MEMB      61              0.0000000000
      8362        61  DOPC      C216            0.2359308995      -17.1909241928       -0.4351932481  MEMB      61              0.0000000000
      8363        61  DOPC      H16R            0.5520146411      -17.3750432203        0.6169014379  MEMB      61              0.0000000000
      8364        61  DOPC      H16S           -0.7002048357      -17.7667969561       -0.6158729292  MEMB      61              0.0000000000
      8365        61  DOPC      C217           -0.0458314082      -15.7009148503       -0.6105174225  MEMB      61              0.0000000000
      8366        61  DOPC      H17R           -0.4238492073      -15.5254724179       -1.6438379243  MEMB      61              0.0000000000
      8367        61  DOPC      H17S            0.9081358660      -15.1362505974       -0.4991913713  MEMB      61              0.0000000000
      8368        61  DOPC      C218           -1.0655662496      -15.1922267563        0.4089120987  MEMB      61              0.0000000000
      8369        61  DOPC      H18R           -1.2974159282      -14.1201493302        0.2392033422  MEMB      61              0.0000000000
      8370        61  DOPC      H18S           -0.6643050121      -15.3109599797        1.4394874136  MEMB      61              0.0000000000
      8371        61  DOPC      H18T           -2.0088208871      -15.7760652891        0.3372838374  MEMB      61              0.0000000000
      8372        61  DOPC      C33             0.7917517875      -14.5358307666      -13.4728846960  MEMB      61              0.0000000000
      8373        61  DOPC      H3X             1.6896338569      -14.2260966438      -12.8931429824  MEMB      61              0.0000000000
      8374        61  DOPC      H3Y             0.3260994283      -15.3620959936      -12.8886871683  MEMB      61              0.0000000000
      8375        61  DOPC      C34            -0.2399785907      -13.3892775851      -13.4618629685  MEMB      61              0.0000000000
      8376        61  DOPC      H4X             0.2715615566      -12.4479491289      -13.7532295063  MEMB      61              0.0000000000
      8377        61  DOPC      H4Y            -0.5977050002      -13.2562383168      -12.4142851509  MEMB      61              0.0000000000
      8378        61  DOPC      C35            -1.4645092165      -13.5609727605      -14.3813235965  MEMB      61              0.0000000000
      8379        61  DOPC      H5X            -1.1269794159      -13.4671206284      -15.4367760729  MEMB      61              0.0000000000
      8380        61  DOPC      H5Y            -2.1598134261      -12.7121460467      -14.1940621482  MEMB      61              0.0000000000
      8381        61  DOPC      C36            -2.2439923494      -14.8839070988      -14.2574486827  MEMB      61              0.0000000000
      8382        61  DOPC      H6X            -2.9440843459      -14.9216500530      -15.1239061875  MEMB      61              0.0000000000
      8383        61  DOPC      H6Y            -1.5705363662      -15.7640095965      -14.3329273788  MEMB      61              0.0000000000
      8384        61  DOPC      C37            -3.1016409771      -14.9809532814      -12.9901289352  MEMB      61              0.0000000000
      8385        61  DOPC      H7X            -3.3596856942      -13.9573536723      -12.6498733118  MEMB      61              0.0000000000
      8386        61  DOPC      H7Y            -4.0496683539      -15.5197782855      -13.2273179398  MEMB      61              0.0000000000
      8387        61  DOPC      C38            -2.4155650899      -15.7053453031      -11.8341489173  MEMB      61              0.0000000000
      8388        61  DOPC      H8X            -1.4200833596      -15.2524188612      -11.6537802336  MEMB      61              0.0000000000
      8389        61  DOPC      H8Y            -2.2219107984      -16.7480644516      -12.1667189081  MEMB      61              0.0000000000
      8390        61  DOPC      C39            -3.2895940052      -15.6412438798      -10.6006377497  MEMB      61              0.0000000000
      8391        61  DOPC      H9X            -4.2635781506      -16.1448141486      -10.6936494968  MEMB      61              0.0000000000
      8392        61  DOPC      C310           -2.9800792662      -15.0293256095       -9.4452211072  MEMB      61              0.0000000000
      8393        61  DOPC      H10X           -3.6873106120      -15.0803530727       -8.6023203613  MEMB      61              0.0000000000
      8394        61  DOPC      C311           -1.7007497411      -14.2867688535       -9.1554082898  MEMB      61              0.0000000000
      8395        61  DOPC      H11X           -1.8881720621      -13.4366579222       -8.4645465585  MEMB      61              0.0000000000
      8396        61  DOPC      H11Y           -1.2575235970      -13.8541468742      -10.0800443102  MEMB      61              0.0000000000
      8397        61  DOPC      C312           -0.6628634817      -15.2057636399       -8.5109701656  MEMB      61              0.0000000000
      8398        61  DOPC      H12X            0.2876907552      -14.6465742673       -8.3681491395  MEMB      61              0.0000000000
      8399        61  DOPC      H12Y           -0.4388259291      -16.0555431250       -9.1995769997  MEMB      61              0.0000000000
      8400        61  DOPC      C313           -1.1064540092      -15.7826459487       -7.1606556566  MEMB      61              0.0000000000
      8401        61  DOPC      H13X           -2.0328004397      -16.3848014823       -7.2811818424  MEMB      61              0.0000000000
      8402        61  DOPC      H13Y           -0.3045176760      -16.4900028357       -6.8897359214  MEMB      61              0.0000000000
      8403        61  DOPC      C314           -1.3141788701      -14.7720185655       -6.0144561821  MEMB      61              0.0000000000
      8404        61  DOPC      H14X           -2.1738118339      -14.1080804951       -6.2504125412  MEMB      61              0.0000000000
      8405        61  DOPC      H14Y           -1.5860722407      -15.3568412122       -5.1035931979  MEMB      61              0.0000000000
      8406        61  DOPC      C315           -0.0845740564      -13.9125369353       -5.6633726533  MEMB      61              0.0000000000
      8407        61  DOPC      H15X           -0.2987426065      -13.3841164601       -4.7065509208  MEMB      61              0.0000000000
      8408        61  DOPC      H15Y            0.0768093816      -13.1413921818       -6.4480725093  MEMB      61              0.0000000000
      8409        61  DOPC      C316            1.1925477580      -14.7467054185       -5.5002057406  MEMB      61              0.0000000000
      8410        61  DOPC      H16X            0.8981009253      -15.7891534265       -5.2634071991  MEMB      61              0.0000000000
      8411        61  DOPC      H16Y            1.7566646874      -14.7730157510       -6.4578256424  MEMB      61              0.0000000000
      8412        61  DOPC      C317            2.1050016043      -14.3175606323       -4.3523274888  MEMB      61              0.0000000000
      8413        61  DOPC      H17X            2.4885632239      -13.2915834937       -4.5377101793  MEMB      61              0.0000000000
      8414        61  DOPC      H17Y            1.5163587781      -14.2969388609       -3.4064049295  MEMB      61              0.0000000000
      8415        61  DOPC      C318            3.2695604314      -15.2932242824       -4.1967428191  MEMB      61              0.0000000000
      8416        61  DOPC      H18X            3.9352940153      -15.2295892770       -5.0836939496  MEMB      61              0.0000000000
      8417        61  DOPC      H18Y            3.8591133451      -15.0840010372       -3.2799511862  MEMB      61              0.0000000000
      8418        61  DOPC      H18Z            2.9213553270      -16.3417095241       -4.1420011595  MEMB      61              0.0000000000
      8419        62  DOPC      N             -16.7153260145        1.5970681373      -19.1436488282  MEMB      62              0.0000000000
      8420        62  DOPC      C12           -16.8309897088        0.6204902497      -17.9840011803  MEMB      62              0.0000000000
      8421        62  DOPC      H12A          -16.7170934992        1.1639032505      -17.0553541417  MEMB      62              0.0000000000
      8422        62  DOPC      H12B          -15.9741482459       -0.0432200505      -18.0362251400  MEMB      62              0.0000000000
      8423        62  DOPC      C13           -16.2685593274        0.8467986387      -20.3689328568  MEMB      62              0.0000000000
      8424        62  DOPC      H13A          -15.3779146814        0.2593304970      -20.1836980497  MEMB      62              0.0000000000
      8425        62  DOPC      H13B          -17.0360263640        0.1224699448      -20.6638663570  MEMB      62              0.0000000000
      8426        62  DOPC      H13C          -16.1007141849        1.5093633468      -21.2028413298  MEMB      62              0.0000000000
      8427        62  DOPC      C14           -15.7030722015        2.6445380748      -18.8162226522  MEMB      62              0.0000000000
      8428        62  DOPC      H14A          -16.0476366353        3.3251565232      -18.0500116421  MEMB      62              0.0000000000
      8429        62  DOPC      H14B          -14.7763958607        2.2093042589      -18.4520751111  MEMB      62              0.0000000000
      8430        62  DOPC      H14C          -15.4236477311        3.2625154958      -19.6702631925  MEMB      62              0.0000000000
      8431        62  DOPC      C15           -18.0383133978        2.2122102293      -19.4779323164  MEMB      62              0.0000000000
      8432        62  DOPC      H15A          -18.3511916141        2.9228843898      -18.7332372762  MEMB      62              0.0000000000
      8433        62  DOPC      H15B          -18.7688720736        1.4124426441      -19.5676401808  MEMB      62              0.0000000000
      8434        62  DOPC      H15C          -17.9745332829        2.7001285069      -20.4493211522  MEMB      62              0.0000000000
      8435        62  DOPC      C11           -18.0894684506       -0.2809612244      -17.8754228648  MEMB      62              0.0000000000
      8436        62  DOPC      H11A          -17.9312836432       -1.0189114288      -17.0493617223  MEMB      62              0.0000000000
      8437        62  DOPC      H11B          -18.9394937741        0.3681494569      -17.5579650367  MEMB      62              0.0000000000
      8438        62  DOPC      P             -17.7205538980       -2.2137704580      -19.6894696893  MEMB      62              0.0000000000
      8439        62  DOPC      O13           -17.6157884719       -2.0592079641      -21.1586604275  MEMB      62              0.0000000000
      8440        62  DOPC      O14           -18.4465155293       -3.4156657906      -19.2192763619  MEMB      62              0.0000000000
      8441        62  DOPC      O12           -18.4306513080       -0.9189072636      -19.1064046425  MEMB      62              0.0000000000
      8442        62  DOPC      O11           -16.2929571986       -2.1445488441      -19.0434527048  MEMB      62              0.0000000000
      8443        62  DOPC      C1            -15.7292206756       -3.3328681871      -18.4858772320  MEMB      62              0.0000000000
      8444        62  DOPC      HA            -15.0905751822       -3.7818420862      -19.2775071822  MEMB      62              0.0000000000
      8445        62  DOPC      HB            -16.4756782758       -4.0978159509      -18.1758558465  MEMB      62              0.0000000000
      8446        62  DOPC      C2            -14.8005555507       -3.0070844896      -17.2844768468  MEMB      62              0.0000000000
      8447        62  DOPC      HS            -14.1343955389       -3.8850591102      -17.1006128978  MEMB      62              0.0000000000
      8448        62  DOPC      O21           -15.5085003722       -2.6526872576      -16.0476093073  MEMB      62              0.0000000000
      8449        62  DOPC      C21           -16.0905464978       -3.7424215214      -15.4761499523  MEMB      62              0.0000000000
      8450        62  DOPC      O22           -16.1035524366       -4.8456037761      -15.9775612495  MEMB      62              0.0000000000
      8451        62  DOPC      C22           -16.6744447016       -3.4643575766      -14.0765047941  MEMB      62              0.0000000000
      8452        62  DOPC      H2R           -17.2346620650       -2.5087611381      -14.1029327599  MEMB      62              0.0000000000
      8453        62  DOPC      H2S           -15.7977140975       -3.4014999075      -13.4018336948  MEMB      62              0.0000000000
      8454        62  DOPC      C3            -13.8844881200       -1.8534168846      -17.7873317877  MEMB      62              0.0000000000
      8455        62  DOPC      HX            -14.4745575739       -0.9944331281      -18.1720352970  MEMB      62              0.0000000000
      8456        62  DOPC      HY            -13.3366267223       -2.2526743330      -18.6711825451  MEMB      62              0.0000000000
      8457        62  DOPC      O31           -12.9327880378       -1.4914819859      -16.7845656355  MEMB      62              0.0000000000
      8458        62  DOPC      C31           -13.2501981239       -0.4296704321      -16.0739625995  MEMB      62              0.0000000000
      8459        62  DOPC      O32           -14.0688631990        0.4234110853      -16.3695718028  MEMB      62              0.0000000000
      8460        62  DOPC      C32           -12.4605482112       -0.5373997038      -14.7751603001  MEMB      62              0.0000000000
      8461        62  DOPC      H2X           -11.5538428477       -1.1421402287      -14.9932970829  MEMB      62              0.0000000000
      8462        62  DOPC      H2Y           -12.1545419656        0.4770097624      -14.4551895448  MEMB      62              0.0000000000
      8463        62  DOPC      C23           -17.5434237051       -4.6414030617      -13.5303807835  MEMB      62              0.0000000000
      8464        62  DOPC      H3R           -16.8767391830       -5.5210860698      -13.3884436675  MEMB      62              0.0000000000
      8465        62  DOPC      H3S           -18.2719349671       -4.9079015039      -14.3325429563  MEMB      62              0.0000000000
      8466        62  DOPC      C24           -18.3346929482       -4.4223033922      -12.2109885090  MEMB      62              0.0000000000
      8467        62  DOPC      H4R           -19.1198171543       -5.2088597527      -12.1652439214  MEMB      62              0.0000000000
      8468        62  DOPC      H4S           -18.8647611215       -3.4467965865      -12.2466857507  MEMB      62              0.0000000000
      8469        62  DOPC      C25           -17.5107278675       -4.5415272993      -10.9037044110  MEMB      62              0.0000000000
      8470        62  DOPC      H5R           -16.8121269434       -3.6843782733      -10.9103580977  MEMB      62              0.0000000000
      8471        62  DOPC      H5S           -16.8871409414       -5.4584241961      -10.9275938174  MEMB      62              0.0000000000
      8472        62  DOPC      C26           -18.3414260092       -4.5498017837       -9.5841406575  MEMB      62              0.0000000000
      8473        62  DOPC      H6R           -18.9948130168       -5.4494061394       -9.5768102829  MEMB      62              0.0000000000
      8474        62  DOPC      H6S           -19.0070914193       -3.6599385661       -9.5885425324  MEMB      62              0.0000000000
      8475        62  DOPC      C27           -17.4928436129       -4.5471886143       -8.2797828989  MEMB      62              0.0000000000
      8476        62  DOPC      H7R           -16.6614466823       -3.8162824063       -8.3723414366  MEMB      62              0.0000000000
      8477        62  DOPC      H7S           -17.0130305368       -5.5447630958       -8.1783676619  MEMB      62              0.0000000000
      8478        62  DOPC      C28           -18.2338557794       -4.2336976052       -6.9429511096  MEMB      62              0.0000000000
      8479        62  DOPC      H8R           -17.4777792399       -4.3334294729       -6.1297229445  MEMB      62              0.0000000000
      8480        62  DOPC      H8S           -18.9837921134       -5.0352454018       -6.7642453988  MEMB      62              0.0000000000
      8481        62  DOPC      C29           -18.9168795495       -2.8845139349       -6.8487553523  MEMB      62              0.0000000000
      8482        62  DOPC      H9R           -19.8202688023       -2.8028490707       -7.4712195827  MEMB      62              0.0000000000
      8483        62  DOPC      C210          -18.5801667021       -1.8088537149       -6.1016984343  MEMB      62              0.0000000000
      8484        62  DOPC      H10R          -19.2213340613       -0.9153029735       -6.1592800803  MEMB      62              0.0000000000
      8485        62  DOPC      C211          -17.4250272871       -1.6410748086       -5.1428860411  MEMB      62              0.0000000000
      8486        62  DOPC      H11R          -16.7096067329       -0.8799005608       -5.5260043772  MEMB      62              0.0000000000
      8487        62  DOPC      H11S          -16.8467731839       -2.5801373538       -4.9916824326  MEMB      62              0.0000000000
      8488        62  DOPC      C212          -17.9338159587       -1.1430275220       -3.7807848116  MEMB      62              0.0000000000
      8489        62  DOPC      H12R          -18.4828222810       -0.1803973420       -3.8822412604  MEMB      62              0.0000000000
      8490        62  DOPC      H12S          -17.0491999843       -0.9323892094       -3.1431744855  MEMB      62              0.0000000000
      8491        62  DOPC      C213          -18.8280068371       -2.1708172438       -3.0844596282  MEMB      62              0.0000000000
      8492        62  DOPC      H13R          -18.9204963036       -3.0795160287       -3.7210489754  MEMB      62              0.0000000000
      8493        62  DOPC      H13S          -19.8543148451       -1.7611833009       -2.9543017171  MEMB      62              0.0000000000
      8494        62  DOPC      C214          -18.2791635139       -2.6184408225       -1.7344084453  MEMB      62              0.0000000000
      8495        62  DOPC      H14R          -17.1751360538       -2.7404479980       -1.7540989620  MEMB      62              0.0000000000
      8496        62  DOPC      H14S          -18.7018267455       -3.6302451346       -1.5441573039  MEMB      62              0.0000000000
      8497        62  DOPC      C215          -18.7235423813       -1.6893895285       -0.6047172721  MEMB      62              0.0000000000
      8498        62  DOPC      H15R          -19.7141881034       -1.2479020651       -0.8579991942  MEMB      62              0.0000000000
      8499        62  DOPC      H15S          -18.0205572118       -0.8363406240       -0.5002885837  MEMB      62              0.0000000000
      8500        62  DOPC      C216          -18.8654938543       -2.4531651989        0.7120811312  MEMB      62              0.0000000000
      8501        62  DOPC      H16R          -18.8986722064       -3.5409156593        0.5043440906  MEMB      62              0.0000000000
      8502        62  DOPC      H16S          -19.8157817052       -2.1415874050        1.2044347836  MEMB      62              0.0000000000
      8503        62  DOPC      C217          -17.7076644010       -2.1983722834        1.6576096111  MEMB      62              0.0000000000
      8504        62  DOPC      H17R          -18.0232325538       -2.3538527657        2.7140313903  MEMB      62              0.0000000000
      8505        62  DOPC      H17S          -17.4722746280       -1.1324114023        1.5089408151  MEMB      62              0.0000000000
      8506        62  DOPC      C218          -16.4573339488       -3.0103864663        1.3511017943  MEMB      62              0.0000000000
      8507        62  DOPC      H18R          -16.3913099640       -3.2809251623        0.2763171159  MEMB      62              0.0000000000
      8508        62  DOPC      H18S          -16.4367675794       -3.9417230919        1.9386108955  MEMB      62              0.0000000000
      8509        62  DOPC      H18T          -15.5558701596       -2.4370798726        1.6419691098  MEMB      62              0.0000000000
      8510        62  DOPC      C33           -13.2627597690       -1.2367128237      -13.6618998602  MEMB      62              0.0000000000
      8511        62  DOPC      H3X           -12.5630822872       -1.6866932248      -12.9191528356  MEMB      62              0.0000000000
      8512        62  DOPC      H3Y           -13.8597822693       -2.0791433255      -14.0804168684  MEMB      62              0.0000000000
      8513        62  DOPC      C34           -14.1630483092       -0.2308479310      -12.9369180929  MEMB      62              0.0000000000
      8514        62  DOPC      H4X           -14.6691430462        0.4140742862      -13.6902108483  MEMB      62              0.0000000000
      8515        62  DOPC      H4Y           -13.5312025621        0.4220188150      -12.2933313300  MEMB      62              0.0000000000
      8516        62  DOPC      C35           -15.2345266927       -0.9134246930      -12.0879771335  MEMB      62              0.0000000000
      8517        62  DOPC      H5X           -14.7464425899       -1.4743517884      -11.2659077843  MEMB      62              0.0000000000
      8518        62  DOPC      H5Y           -15.7697781549       -1.6215652300      -12.7298081551  MEMB      62              0.0000000000
      8519        62  DOPC      C36           -16.3381882050        0.0103982190      -11.5774009886  MEMB      62              0.0000000000
      8520        62  DOPC      H6X           -15.8676827816        0.8622328747      -11.0523577852  MEMB      62              0.0000000000
      8521        62  DOPC      H6Y           -16.8965701643        0.4128045565      -12.4549395467  MEMB      62              0.0000000000
      8522        62  DOPC      C37           -17.3677495495       -0.6866595073      -10.6721035017  MEMB      62              0.0000000000
      8523        62  DOPC      H7X           -18.1125044426        0.0566014392      -10.3154941785  MEMB      62              0.0000000000
      8524        62  DOPC      H7Y           -17.9332683465       -1.4207931303      -11.2919554378  MEMB      62              0.0000000000
      8525        62  DOPC      C38           -16.7906897305       -1.4567742558       -9.4609624638  MEMB      62              0.0000000000
      8526        62  DOPC      H8X           -16.0782566088       -2.2176239644       -9.8229751250  MEMB      62              0.0000000000
      8527        62  DOPC      H8Y           -17.6631126150       -2.0016230796       -9.0483328328  MEMB      62              0.0000000000
      8528        62  DOPC      C39           -16.1725658501       -0.6904762055       -8.3292116951  MEMB      62              0.0000000000
      8529        62  DOPC      H9X           -16.8770710213       -0.0083859964       -7.8302562236  MEMB      62              0.0000000000
      8530        62  DOPC      C310          -14.9163056899       -0.7584937814       -7.8609132732  MEMB      62              0.0000000000
      8531        62  DOPC      H10X          -14.6606516732       -0.0983764195       -7.0208221752  MEMB      62              0.0000000000
      8532        62  DOPC      C311          -13.7838522517       -1.6318298039       -8.3490769820  MEMB      62              0.0000000000
      8533        62  DOPC      H11X          -13.0872153601       -1.0380752613       -8.9815901130  MEMB      62              0.0000000000
      8534        62  DOPC      H11Y          -14.1555129113       -2.4736486955       -8.9766359776  MEMB      62              0.0000000000
      8535        62  DOPC      C312          -12.9853047877       -2.2454091603       -7.1790821216  MEMB      62              0.0000000000
      8536        62  DOPC      H12X          -12.2033202031       -2.9273763526       -7.5848646824  MEMB      62              0.0000000000
      8537        62  DOPC      H12Y          -13.6755168305       -2.8799692205       -6.5767768407  MEMB      62              0.0000000000
      8538        62  DOPC      C313          -12.3129258429       -1.2111110940       -6.2578937794  MEMB      62              0.0000000000
      8539        62  DOPC      H13X          -11.2194371051       -1.1740455945       -6.4630853539  MEMB      62              0.0000000000
      8540        62  DOPC      H13Y          -12.7077406706       -0.1963906991       -6.4535811848  MEMB      62              0.0000000000
      8541        62  DOPC      C314          -12.5574586465       -1.4927659307       -4.7744767508  MEMB      62              0.0000000000
      8542        62  DOPC      H14X          -13.6465505922       -1.6163759718       -4.5827792324  MEMB      62              0.0000000000
      8543        62  DOPC      H14Y          -12.0665007005       -2.4681096186       -4.5537367857  MEMB      62              0.0000000000
      8544        62  DOPC      C315          -11.9915202397       -0.3938980671       -3.8495469320  MEMB      62              0.0000000000
      8545        62  DOPC      H15X          -12.7011480615        0.4573858982       -3.7698634973  MEMB      62              0.0000000000
      8546        62  DOPC      H15Y          -11.0484420076       -0.0170613840       -4.3026081630  MEMB      62              0.0000000000
      8547        62  DOPC      C316          -11.6664953030       -0.9828738198       -2.4746559584  MEMB      62              0.0000000000
      8548        62  DOPC      H16X          -12.5680591025       -1.1961444894       -1.8829552779  MEMB      62              0.0000000000
      8549        62  DOPC      H16Y          -11.2563067221       -1.9772678345       -2.7083300246  MEMB      62              0.0000000000
      8550        62  DOPC      C317          -10.5921765972       -0.3230968674       -1.5947300487  MEMB      62              0.0000000000
      8551        62  DOPC      H17X           -9.8176877608       -1.0998794026       -1.3944974909  MEMB      62              0.0000000000
      8552        62  DOPC      H17Y          -10.0596648517        0.4730954685       -2.1473400679  MEMB      62              0.0000000000
      8553        62  DOPC      C318          -11.0893594462        0.1682060697       -0.2270644162  MEMB      62              0.0000000000
      8554        62  DOPC      H18X          -10.2342808066        0.2194369936        0.4800121949  MEMB      62              0.0000000000
      8555        62  DOPC      H18Y          -11.5531591757        1.1699555935       -0.2716873466  MEMB      62              0.0000000000
      8556        62  DOPC      H18Z          -11.8476445953       -0.5194281238        0.1937163456  MEMB      62              0.0000000000
      8557        63  DOPC      N              -4.8922888133       13.5410122299      -19.8637283240  MEMB      63              0.0000000000
      8558        63  DOPC      C12            -3.9650441929       14.5685053611      -19.2141222609  MEMB      63              0.0000000000
      8559        63  DOPC      H12A           -3.5696350928       15.2073906062      -20.0003501908  MEMB      63              0.0000000000
      8560        63  DOPC      H12B           -3.1493728251       14.0637377900      -18.7318643965  MEMB      63              0.0000000000
      8561        63  DOPC      C13            -4.1075281904       12.6151312446      -20.7264462824  MEMB      63              0.0000000000
      8562        63  DOPC      H13A           -3.3774401396       12.0730194618      -20.1470276404  MEMB      63              0.0000000000
      8563        63  DOPC      H13B           -4.7483035450       11.8724722166      -21.1918540770  MEMB      63              0.0000000000
      8564        63  DOPC      H13C           -3.5993709028       13.1682664757      -21.5149738624  MEMB      63              0.0000000000
      8565        63  DOPC      C14            -5.8631861803       14.2748053414      -20.7297983747  MEMB      63              0.0000000000
      8566        63  DOPC      H14A           -6.3595178240       15.0299100663      -20.1139892184  MEMB      63              0.0000000000
      8567        63  DOPC      H14B           -5.3333046071       14.8366728346      -21.4885025368  MEMB      63              0.0000000000
      8568        63  DOPC      H14C           -6.5827511837       13.6249425759      -21.1981205287  MEMB      63              0.0000000000
      8569        63  DOPC      C15            -5.6639187043       12.8350655888      -18.7943528931  MEMB      63              0.0000000000
      8570        63  DOPC      H15A           -5.0308283979       12.3104012881      -18.0886266423  MEMB      63              0.0000000000
      8571        63  DOPC      H15B           -6.3877323684       12.1504510070      -19.2038410537  MEMB      63              0.0000000000
      8572        63  DOPC      H15C           -6.2083060326       13.5932436040      -18.2274891988  MEMB      63              0.0000000000
      8573        63  DOPC      C11            -4.5716923699       15.5568664984      -18.1996001847  MEMB      63              0.0000000000
      8574        63  DOPC      H11A           -5.1002764640       15.0471099940      -17.3627953406  MEMB      63              0.0000000000
      8575        63  DOPC      H11B           -3.7359295341       16.1519061035      -17.7535217742  MEMB      63              0.0000000000
      8576        63  DOPC      P              -5.9095191661       17.7879864936      -18.3430091665  MEMB      63              0.0000000000
      8577        63  DOPC      O13            -7.3412368768       17.8666497749      -18.7428511322  MEMB      63              0.0000000000
      8578        63  DOPC      O14            -4.9499355076       18.7918728390      -18.8515709151  MEMB      63              0.0000000000
      8579        63  DOPC      O12            -5.4619919562       16.3905492332      -18.9133272349  MEMB      63              0.0000000000
      8580        63  DOPC      O11            -5.7395232564       17.5444971043      -16.7934813227  MEMB      63              0.0000000000
      8581        63  DOPC      C1             -6.5734734600       18.1499718549      -15.8071573467  MEMB      63              0.0000000000
      8582        63  DOPC      HA             -7.5970267398       18.3811153886      -16.1906539764  MEMB      63              0.0000000000
      8583        63  DOPC      HB             -6.1211848985       19.1139491926      -15.4800355369  MEMB      63              0.0000000000
      8584        63  DOPC      C2             -6.6971209608       17.2207033575      -14.5632101787  MEMB      63              0.0000000000
      8585        63  DOPC      HS             -7.0019780908       17.8273031428      -13.6813767718  MEMB      63              0.0000000000
      8586        63  DOPC      O21            -5.4732120083       16.5264233271      -14.2901616657  MEMB      63              0.0000000000
      8587        63  DOPC      C21            -4.4661607869       17.2279867703      -13.8603244795  MEMB      63              0.0000000000
      8588        63  DOPC      O22            -4.4860671546       18.3911965217      -13.4907822594  MEMB      63              0.0000000000
      8589        63  DOPC      C22            -3.2550246107       16.2888468479      -13.7827602710  MEMB      63              0.0000000000
      8590        63  DOPC      H2R            -2.5430571595       16.6171307397      -14.5630349622  MEMB      63              0.0000000000
      8591        63  DOPC      H2S            -3.5638318786       15.2497354848      -14.0155983290  MEMB      63              0.0000000000
      8592        63  DOPC      C3             -7.7793742314       16.1262091418      -14.7763860477  MEMB      63              0.0000000000
      8593        63  DOPC      HX             -7.6216325163       15.6676973539      -15.7816240657  MEMB      63              0.0000000000
      8594        63  DOPC      HY             -8.7742461141       16.6226839849      -14.8026854107  MEMB      63              0.0000000000
      8595        63  DOPC      O31            -7.7574465956       15.1551399567      -13.6992665926  MEMB      63              0.0000000000
      8596        63  DOPC      C31            -6.9142308344       14.1283261962      -13.8691121185  MEMB      63              0.0000000000
      8597        63  DOPC      O32            -6.3420364342       13.8500753401      -14.9070188098  MEMB      63              0.0000000000
      8598        63  DOPC      C32            -6.7933137233       13.3813470606      -12.5456175747  MEMB      63              0.0000000000
      8599        63  DOPC      H2X            -6.3448061430       14.0702869831      -11.7998187901  MEMB      63              0.0000000000
      8600        63  DOPC      H2Y            -7.8184404511       13.1151320905      -12.2124781461  MEMB      63              0.0000000000
      8601        63  DOPC      C23            -2.5908488126       16.3253186669      -12.3897688674  MEMB      63              0.0000000000
      8602        63  DOPC      H3R            -2.4530340640       17.3809102602      -12.0701752819  MEMB      63              0.0000000000
      8603        63  DOPC      H3S            -1.5790331337       15.8584721320      -12.4482747954  MEMB      63              0.0000000000
      8604        63  DOPC      C24            -3.4051017615       15.5736912948      -11.3359829612  MEMB      63              0.0000000000
      8605        63  DOPC      H4R            -3.2716354331       14.4793780121      -11.5078349008  MEMB      63              0.0000000000
      8606        63  DOPC      H4S            -4.4900568586       15.7871185070      -11.4491633203  MEMB      63              0.0000000000
      8607        63  DOPC      C25            -2.9758834789       15.9146271973       -9.9024435242  MEMB      63              0.0000000000
      8608        63  DOPC      H5R            -1.8733954875       15.7891411977       -9.8113833568  MEMB      63              0.0000000000
      8609        63  DOPC      H5S            -3.4486269181       15.1627070280       -9.2431714251  MEMB      63              0.0000000000
      8610        63  DOPC      C26            -3.3717467742       17.3213863603       -9.4014607359  MEMB      63              0.0000000000
      8611        63  DOPC      H6R            -2.9156181629       18.0886354279      -10.0633325692  MEMB      63              0.0000000000
      8612        63  DOPC      H6S            -2.9254956237       17.4686481508       -8.3940874394  MEMB      63              0.0000000000
      8613        63  DOPC      C27            -4.8921012416       17.5805003841       -9.2836215563  MEMB      63              0.0000000000
      8614        63  DOPC      H7R            -5.3508203535       17.4692215128      -10.2894494893  MEMB      63              0.0000000000
      8615        63  DOPC      H7S            -5.0407658803       18.6378873057       -8.9665998169  MEMB      63              0.0000000000
      8616        63  DOPC      C28            -5.5934606489       16.6515846109       -8.2601538514  MEMB      63              0.0000000000
      8617        63  DOPC      H8R            -5.1748660057       16.9125852562       -7.2641861062  MEMB      63              0.0000000000
      8618        63  DOPC      H8S            -5.2904427209       15.6072580073       -8.4858872479  MEMB      63              0.0000000000
      8619        63  DOPC      C29            -7.1022613773       16.6660553445       -8.2053787999  MEMB      63              0.0000000000
      8620        63  DOPC      H9R            -7.5991195159       17.1151232183       -9.0803522790  MEMB      63              0.0000000000
      8621        63  DOPC      C210           -7.8580340979       16.1767851539       -7.1940739041  MEMB      63              0.0000000000
      8622        63  DOPC      H10R           -8.9548378999       16.2235177255       -7.2914556283  MEMB      63              0.0000000000
      8623        63  DOPC      C211           -7.3584639388       15.5232764286       -5.9162094437  MEMB      63              0.0000000000
      8624        63  DOPC      H11R           -8.0316903034       15.7751754603       -5.0678267669  MEMB      63              0.0000000000
      8625        63  DOPC      H11S           -6.3570356937       15.9270596870       -5.6466371910  MEMB      63              0.0000000000
      8626        63  DOPC      C212           -7.2220576445       13.9840871247       -5.9722517922  MEMB      63              0.0000000000
      8627        63  DOPC      H12R           -6.7651215204       13.7323978259       -6.9583325337  MEMB      63              0.0000000000
      8628        63  DOPC      H12S           -8.2159231422       13.4930682130       -5.9455732864  MEMB      63              0.0000000000
      8629        63  DOPC      C213           -6.2843483783       13.3773431089       -4.9003205510  MEMB      63              0.0000000000
      8630        63  DOPC      H13R           -5.2993762903       13.8893851545       -4.9933042122  MEMB      63              0.0000000000
      8631        63  DOPC      H13S           -6.1350356193       12.3053229560       -5.1568731567  MEMB      63              0.0000000000
      8632        63  DOPC      C214           -6.6951013589       13.4304288065       -3.4168643837  MEMB      63              0.0000000000
      8633        63  DOPC      H14R           -6.8830387701       14.4826180793       -3.1157204776  MEMB      63              0.0000000000
      8634        63  DOPC      H14S           -5.8322842657       13.0600751669       -2.8167098784  MEMB      63              0.0000000000
      8635        63  DOPC      C215           -7.8959313208       12.5453225552       -3.0571277378  MEMB      63              0.0000000000
      8636        63  DOPC      H15R           -8.6821884776       12.7133871342       -3.8254004051  MEMB      63              0.0000000000
      8637        63  DOPC      H15S           -8.3148073504       12.8693404922       -2.0803211936  MEMB      63              0.0000000000
      8638        63  DOPC      C216           -7.5533551464       11.0451260556       -2.9900544064  MEMB      63              0.0000000000
      8639        63  DOPC      H16R           -6.6958302826       10.8394352803       -3.6668862094  MEMB      63              0.0000000000
      8640        63  DOPC      H16S           -8.4197894735       10.4635953449       -3.3786806542  MEMB      63              0.0000000000
      8641        63  DOPC      C217           -7.2125980475       10.5035354388       -1.5877776695  MEMB      63              0.0000000000
      8642        63  DOPC      H17R           -6.3007258755       11.0196148730       -1.2117458332  MEMB      63              0.0000000000
      8643        63  DOPC      H17S           -6.9542591469        9.4244730068       -1.7054185284  MEMB      63              0.0000000000
      8644        63  DOPC      C218           -8.3327741331       10.6308765281       -0.5435205961  MEMB      63              0.0000000000
      8645        63  DOPC      H18R           -9.3140519872       10.3388765768       -0.9763666212  MEMB      63              0.0000000000
      8646        63  DOPC      H18S           -8.4074128684       11.6754944625       -0.1712336999  MEMB      63              0.0000000000
      8647        63  DOPC      H18T           -8.1297095791        9.9760842218        0.3315571229  MEMB      63              0.0000000000
      8648        63  DOPC      C33            -5.9330507252       12.1145080147      -12.6725132826  MEMB      63              0.0000000000
      8649        63  DOPC      H3X            -4.8555350319       12.3851124919      -12.7245729854  MEMB      63              0.0000000000
      8650        63  DOPC      H3Y            -6.1792939604       11.5826682647      -13.6238445341  MEMB      63              0.0000000000
      8651        63  DOPC      C34            -6.1692199730       11.0976290115      -11.5477122736  MEMB      63              0.0000000000
      8652        63  DOPC      H4X            -5.4764632472       10.2485085238      -11.7438665756  MEMB      63              0.0000000000
      8653        63  DOPC      H4Y            -7.2118399589       10.7131156232      -11.6251279616  MEMB      63              0.0000000000
      8654        63  DOPC      C35            -5.9278711805       11.5808112415      -10.1081407257  MEMB      63              0.0000000000
      8655        63  DOPC      H5X            -6.0729064794       10.7067624721       -9.4320553518  MEMB      63              0.0000000000
      8656        63  DOPC      H5Y            -6.6888887105       12.3403474501       -9.8204406742  MEMB      63              0.0000000000
      8657        63  DOPC      C36            -4.5195674876       12.1490885674       -9.8847108169  MEMB      63              0.0000000000
      8658        63  DOPC      H6X            -3.8902829493       11.9221261765      -10.7718827106  MEMB      63              0.0000000000
      8659        63  DOPC      H6Y            -4.5950857420       13.2575064132       -9.8201139623  MEMB      63              0.0000000000
      8660        63  DOPC      C37            -3.8097244111       11.6128406032       -8.6291761093  MEMB      63              0.0000000000
      8661        63  DOPC      H7X            -3.7574378473       10.5022098412       -8.6466104934  MEMB      63              0.0000000000
      8662        63  DOPC      H7Y            -2.7625249084       11.9946136718       -8.6572045501  MEMB      63              0.0000000000
      8663        63  DOPC      C38            -4.4972245447       12.0876179785       -7.3456139381  MEMB      63              0.0000000000
      8664        63  DOPC      H8X            -5.4269811130       11.5030766125       -7.1744334992  MEMB      63              0.0000000000
      8665        63  DOPC      H8Y            -4.8231814695       13.1362451095       -7.5410557959  MEMB      63              0.0000000000
      8666        63  DOPC      C39            -3.6330750901       12.0889224783       -6.1145193364  MEMB      63              0.0000000000
      8667        63  DOPC      H9X            -3.7847415132       11.2668224911       -5.3974993614  MEMB      63              0.0000000000
      8668        63  DOPC      C310           -2.7122280153       13.0282734719       -5.8595465523  MEMB      63              0.0000000000
      8669        63  DOPC      H10X           -2.1810490826       13.0150782197       -4.8952046074  MEMB      63              0.0000000000
      8670        63  DOPC      C311           -2.3762400210       14.2022328738       -6.7290875529  MEMB      63              0.0000000000
      8671        63  DOPC      H11X           -2.8054088796       14.0731950711       -7.7399146303  MEMB      63              0.0000000000
      8672        63  DOPC      H11Y           -1.2844559836       14.2699565153       -6.9038480277  MEMB      63              0.0000000000
      8673        63  DOPC      C312           -2.9202955905       15.5024633891       -6.1330090702  MEMB      63              0.0000000000
      8674        63  DOPC      H12X           -4.0134804542       15.5153837227       -6.3390517872  MEMB      63              0.0000000000
      8675        63  DOPC      H12Y           -2.4595402107       16.3657417245       -6.6583424295  MEMB      63              0.0000000000
      8676        63  DOPC      C313           -2.7576206575       15.6964951232       -4.6192389812  MEMB      63              0.0000000000
      8677        63  DOPC      H13X           -3.2657069301       14.8688931570       -4.0742108566  MEMB      63              0.0000000000
      8678        63  DOPC      H13Y           -1.6915028624       15.6927821797       -4.3191801760  MEMB      63              0.0000000000
      8679        63  DOPC      C314           -3.4368800099       16.9990970205       -4.1913293250  MEMB      63              0.0000000000
      8680        63  DOPC      H14X           -2.9797166221       17.8691932286       -4.7075237449  MEMB      63              0.0000000000
      8681        63  DOPC      H14Y           -4.4866771606       16.9320665863       -4.5547502184  MEMB      63              0.0000000000
      8682        63  DOPC      C315           -3.4291995423       17.2054019360       -2.6727868863  MEMB      63              0.0000000000
      8683        63  DOPC      H15X           -2.4591695697       17.6646431648       -2.3775016763  MEMB      63              0.0000000000
      8684        63  DOPC      H15Y           -3.4975166283       16.2121539774       -2.1723680738  MEMB      63              0.0000000000
      8685        63  DOPC      C316           -4.6193735113       18.0487356853       -2.1886946222  MEMB      63              0.0000000000
      8686        63  DOPC      H16X           -4.4371768575       18.3855685272       -1.1429555160  MEMB      63              0.0000000000
      8687        63  DOPC      H16Y           -4.6984126884       18.9596213533       -2.8230365379  MEMB      63              0.0000000000
      8688        63  DOPC      C317           -5.9314710444       17.2408553152       -2.2214431292  MEMB      63              0.0000000000
      8689        63  DOPC      H17X           -6.0498794429       16.7743600287       -3.2244044795  MEMB      63              0.0000000000
      8690        63  DOPC      H17Y           -5.8622197103       16.4100175938       -1.4842962398  MEMB      63              0.0000000000
      8691        63  DOPC      C318           -7.1893793831       18.0611840497       -1.9566832880  MEMB      63              0.0000000000
      8692        63  DOPC      H18X           -8.1071640319       17.4445436512       -2.0665409228  MEMB      63              0.0000000000
      8693        63  DOPC      H18Y           -7.1774427290       18.5079270965       -0.9374404082  MEMB      63              0.0000000000
      8694        63  DOPC      H18Z           -7.2474029091       18.8682809747       -2.7163375973  MEMB      63              0.0000000000
      8695        64  DOPC      N             -16.0975166666       -7.9253448124      -20.9038330278  MEMB      64              0.0000000000
      8696        64  DOPC      C12           -15.3360892420       -6.6504549019      -20.5658506697  MEMB      64              0.0000000000
      8697        64  DOPC      H12A          -15.9964484913       -5.7993489645      -20.7081981721  MEMB      64              0.0000000000
      8698        64  DOPC      H12B          -14.5135395515       -6.5529651123      -21.2565108549  MEMB      64              0.0000000000
      8699        64  DOPC      C13           -17.2501954531       -8.0368188049      -19.9662762712  MEMB      64              0.0000000000
      8700        64  DOPC      H13A          -17.9524014969       -8.7791741150      -20.3197875588  MEMB      64              0.0000000000
      8701        64  DOPC      H13B          -16.9017597759       -8.2463624369      -18.9587026584  MEMB      64              0.0000000000
      8702        64  DOPC      H13C          -17.8061190828       -7.1051085871      -19.9305484803  MEMB      64              0.0000000000
      8703        64  DOPC      C14           -15.2074756175       -9.1165424222      -20.7790443119  MEMB      64              0.0000000000
      8704        64  DOPC      H14A          -15.7181031824      -10.0405669841      -20.9998037451  MEMB      64              0.0000000000
      8705        64  DOPC      H14B          -14.3390849180       -9.0240454666      -21.4166587536  MEMB      64              0.0000000000
      8706        64  DOPC      H14C          -14.8127836185       -9.1609166317      -19.7573269156  MEMB      64              0.0000000000
      8707        64  DOPC      C15           -16.6364158515       -7.8677616466      -22.2969980300  MEMB      64              0.0000000000
      8708        64  DOPC      H15A          -15.8340987481       -7.7904368072      -23.0224699624  MEMB      64              0.0000000000
      8709        64  DOPC      H15B          -17.3298351098       -7.0430504837      -22.3994269592  MEMB      64              0.0000000000
      8710        64  DOPC      H15C          -17.1661685883       -8.7975724458      -22.5191012604  MEMB      64              0.0000000000
      8711        64  DOPC      C11           -14.7288020388       -6.5508983148      -19.1495577071  MEMB      64              0.0000000000
      8712        64  DOPC      H11A          -14.2064441980       -5.5808526808      -19.0234115198  MEMB      64              0.0000000000
      8713        64  DOPC      H11B          -15.5721658824       -6.5513811828      -18.4088129596  MEMB      64              0.0000000000
      8714        64  DOPC      P             -13.6654637454       -8.2531950904      -17.5178997712  MEMB      64              0.0000000000
      8715        64  DOPC      O13           -13.2330863200       -7.2059878055      -16.5745027884  MEMB      64              0.0000000000
      8716        64  DOPC      O14           -12.8349430322       -9.4616968938      -17.6127271093  MEMB      64              0.0000000000
      8717        64  DOPC      O12           -13.7582038718       -7.5813512825      -18.9555220913  MEMB      64              0.0000000000
      8718        64  DOPC      O11           -15.2120698649       -8.5533693556      -17.2929218470  MEMB      64              0.0000000000
      8719        64  DOPC      C1            -15.7730084983       -9.8529076156      -17.2635242699  MEMB      64              0.0000000000
      8720        64  DOPC      HA            -15.2195046562      -10.5054919309      -16.5575247716  MEMB      64              0.0000000000
      8721        64  DOPC      HB            -15.7382899749      -10.3036905285      -18.2767648420  MEMB      64              0.0000000000
      8722        64  DOPC      C2            -17.2468865348       -9.7531656195      -16.8003541324  MEMB      64              0.0000000000
      8723        64  DOPC      HS            -17.6946639160       -8.8998413203      -17.3582462000  MEMB      64              0.0000000000
      8724        64  DOPC      O21           -17.2599960158       -9.4809041116      -15.3989099349  MEMB      64              0.0000000000
      8725        64  DOPC      C21           -18.3200182703       -8.9024037286      -14.8952998803  MEMB      64              0.0000000000
      8726        64  DOPC      O22           -19.3531398955       -8.6353479409      -15.4911887378  MEMB      64              0.0000000000
      8727        64  DOPC      C22           -17.9217718298       -8.5584099297      -13.4606329545  MEMB      64              0.0000000000
      8728        64  DOPC      H2R           -17.1177150791       -7.7953175298      -13.4810871454  MEMB      64              0.0000000000
      8729        64  DOPC      H2S           -17.4959415676       -9.5075447574      -13.0951102872  MEMB      64              0.0000000000
      8730        64  DOPC      C3            -18.0652331304      -11.0382944906      -17.1162242395  MEMB      64              0.0000000000
      8731        64  DOPC      HX            -17.7618766850      -11.4191500313      -18.1220407755  MEMB      64              0.0000000000
      8732        64  DOPC      HY            -19.1266898073      -10.7181212037      -17.1755569761  MEMB      64              0.0000000000
      8733        64  DOPC      O31           -17.9708554610      -12.0154039398      -16.0622821755  MEMB      64              0.0000000000
      8734        64  DOPC      C31           -17.4635989197      -13.2136853266      -16.3208904458  MEMB      64              0.0000000000
      8735        64  DOPC      O32           -17.0515978245      -13.5806704798      -17.4030086555  MEMB      64              0.0000000000
      8736        64  DOPC      C32           -17.5677013662      -14.1033272374      -15.0749736391  MEMB      64              0.0000000000
      8737        64  DOPC      H2X           -18.6420238354      -14.2752805564      -14.8844760642  MEMB      64              0.0000000000
      8738        64  DOPC      H2Y           -17.1663580615      -15.0979375613      -15.3648265790  MEMB      64              0.0000000000
      8739        64  DOPC      C23           -19.0122645386       -8.2003551422      -12.4392656782  MEMB      64              0.0000000000
      8740        64  DOPC      H3R           -19.8233050014       -8.9407156415      -12.5430303900  MEMB      64              0.0000000000
      8741        64  DOPC      H3S           -19.4219364040       -7.1906150106      -12.6427461308  MEMB      64              0.0000000000
      8742        64  DOPC      C24           -18.4770284317       -8.2903869392      -11.0000716349  MEMB      64              0.0000000000
      8743        64  DOPC      H4R           -19.1242230180       -7.6971746103      -10.3178767418  MEMB      64              0.0000000000
      8744        64  DOPC      H4S           -17.4609190382       -7.8364507387      -10.9673055608  MEMB      64              0.0000000000
      8745        64  DOPC      C25           -18.4050165982       -9.7312835307      -10.4589767175  MEMB      64              0.0000000000
      8746        64  DOPC      H5R           -17.8291462869      -10.3651592608      -11.1593812926  MEMB      64              0.0000000000
      8747        64  DOPC      H5S           -19.4182032583      -10.1808317146      -10.3963503449  MEMB      64              0.0000000000
      8748        64  DOPC      C26           -17.7361177288       -9.7662742400       -9.0840353136  MEMB      64              0.0000000000
      8749        64  DOPC      H6R           -18.4529118763       -9.3572848329       -8.3377219557  MEMB      64              0.0000000000
      8750        64  DOPC      H6S           -16.8503478129       -9.0916050838       -9.1040049959  MEMB      64              0.0000000000
      8751        64  DOPC      C27           -17.2371900188      -11.1467779833       -8.6309442587  MEMB      64              0.0000000000
      8752        64  DOPC      H7R           -16.6648734667      -11.6277616333       -9.4444848088  MEMB      64              0.0000000000
      8753        64  DOPC      H7S           -18.1004276908      -11.8102379964       -8.4044108315  MEMB      64              0.0000000000
      8754        64  DOPC      C28           -16.2743946473      -11.0342931484       -7.4370562019  MEMB      64              0.0000000000
      8755        64  DOPC      H8R           -15.3910767149      -10.4192619665       -7.7161105007  MEMB      64              0.0000000000
      8756        64  DOPC      H8S           -15.8853737218      -12.0439146257       -7.1771660971  MEMB      64              0.0000000000
      8757        64  DOPC      C29           -17.0206123623      -10.3934961800       -6.3037031332  MEMB      64              0.0000000000
      8758        64  DOPC      H9R           -16.9787236120       -9.2934012711       -6.2560355398  MEMB      64              0.0000000000
      8759        64  DOPC      C210          -17.7495488461      -11.0689752839       -5.4103815922  MEMB      64              0.0000000000
      8760        64  DOPC      H10R          -18.3129193476      -10.5120182477       -4.6452472766  MEMB      64              0.0000000000
      8761        64  DOPC      C211          -17.9398651373      -12.5626758058       -5.3823461495  MEMB      64              0.0000000000
      8762        64  DOPC      H11R          -17.4764263301      -13.1021610921       -6.2368334016  MEMB      64              0.0000000000
      8763        64  DOPC      H11S          -19.0302077220      -12.7917681347       -5.4166275367  MEMB      64              0.0000000000
      8764        64  DOPC      C212          -17.3610769922      -13.0901728625       -4.0635267258  MEMB      64              0.0000000000
      8765        64  DOPC      H12R          -17.8022018552      -14.0728412118       -3.8525374226  MEMB      64              0.0000000000
      8766        64  DOPC      H12S          -17.7271275308      -12.4316070958       -3.2500463692  MEMB      64              0.0000000000
      8767        64  DOPC      C213          -15.8243243876      -13.2156816993       -3.9555772479  MEMB      64              0.0000000000
      8768        64  DOPC      H13R          -15.3402664252      -12.4411727902       -4.5895951624  MEMB      64              0.0000000000
      8769        64  DOPC      H13S          -15.4850700553      -14.2097293277       -4.3149297881  MEMB      64              0.0000000000
      8770        64  DOPC      C214          -15.3877295491      -13.0032725233       -2.4949520889  MEMB      64              0.0000000000
      8771        64  DOPC      H14R          -15.7767079845      -13.8084549828       -1.8362576582  MEMB      64              0.0000000000
      8772        64  DOPC      H14S          -15.8910928924      -12.0544388440       -2.2203917183  MEMB      64              0.0000000000
      8773        64  DOPC      C215          -13.8831116228      -12.8450306425       -2.2437286364  MEMB      64              0.0000000000
      8774        64  DOPC      H15R          -13.4979649852      -12.0868526801       -2.9590141399  MEMB      64              0.0000000000
      8775        64  DOPC      H15S          -13.3702330936      -13.8134210479       -2.4491487844  MEMB      64              0.0000000000
      8776        64  DOPC      C216          -13.5239561405      -12.4229296939       -0.8037607845  MEMB      64              0.0000000000
      8777        64  DOPC      H16R          -12.4436631073      -12.1673595040       -0.7485192914  MEMB      64              0.0000000000
      8778        64  DOPC      H16S          -13.6588881038      -13.2971995698       -0.1256396720  MEMB      64              0.0000000000
      8779        64  DOPC      C217          -14.3149714055      -11.2454811834       -0.2125993342  MEMB      64              0.0000000000
      8780        64  DOPC      H17R          -14.6795569144      -11.5983596959        0.7712502079  MEMB      64              0.0000000000
      8781        64  DOPC      H17S          -15.2211260064      -10.9631825956       -0.7802541647  MEMB      64              0.0000000000
      8782        64  DOPC      C218          -13.4890635647       -9.9907514166        0.0479264804  MEMB      64              0.0000000000
      8783        64  DOPC      H18R          -13.7209062789       -9.6093255468        1.0658857086  MEMB      64              0.0000000000
      8784        64  DOPC      H18S          -12.4041607282      -10.2170209973       -0.0035889154  MEMB      64              0.0000000000
      8785        64  DOPC      H18T          -13.7266884899       -9.1942338217       -0.6876289073  MEMB      64              0.0000000000
      8786        64  DOPC      C33           -16.8488706072      -13.6475135455      -13.7559867492  MEMB      64              0.0000000000
      8787        64  DOPC      H3X           -15.8278364237      -14.0890983297      -13.7582034833  MEMB      64              0.0000000000
      8788        64  DOPC      H3Y           -17.3895380079      -14.1278828908      -12.9084588243  MEMB      64              0.0000000000
      8789        64  DOPC      C34           -16.6972083535      -12.1340634997      -13.4488588280  MEMB      64              0.0000000000
      8790        64  DOPC      H4X           -17.7027664927      -11.6775464064      -13.3311022249  MEMB      64              0.0000000000
      8791        64  DOPC      H4Y           -16.2059300148      -11.6404579463      -14.3146108137  MEMB      64              0.0000000000
      8792        64  DOPC      C35           -15.8331651778      -11.8521337406      -12.1859664682  MEMB      64              0.0000000000
      8793        64  DOPC      H5X           -14.9830267345      -12.5682172303      -12.1875676763  MEMB      64              0.0000000000
      8794        64  DOPC      H5Y           -16.4550181260      -12.1083840500      -11.3112477242  MEMB      64              0.0000000000
      8795        64  DOPC      C36           -15.2454931188      -10.4177550528      -12.0275057645  MEMB      64              0.0000000000
      8796        64  DOPC      H6X           -14.6522289709      -10.1687504702      -12.9335668723  MEMB      64              0.0000000000
      8797        64  DOPC      H6Y           -16.0095797475       -9.6354275849      -11.9279860438  MEMB      64              0.0000000000
      8798        64  DOPC      C37           -14.3385326754      -10.1982738098      -10.8033777720  MEMB      64              0.0000000000
      8799        64  DOPC      H7X           -14.8627234608      -10.4181829652       -9.8542122361  MEMB      64              0.0000000000
      8800        64  DOPC      H7Y           -13.5546549997      -10.9646255593      -10.9129779284  MEMB      64              0.0000000000
      8801        64  DOPC      C38           -13.6668677872       -8.7977484715      -10.7313090182  MEMB      64              0.0000000000
      8802        64  DOPC      H8X           -13.4382522444       -8.4854344929      -11.7765126410  MEMB      64              0.0000000000
      8803        64  DOPC      H8Y           -12.6761995239       -8.9231249233      -10.2372320814  MEMB      64              0.0000000000
      8804        64  DOPC      C39           -14.4780024456       -7.7141285102      -10.0414287446  MEMB      64              0.0000000000
      8805        64  DOPC      H9X           -15.3279051210       -7.3440493841      -10.6359507143  MEMB      64              0.0000000000
      8806        64  DOPC      C310          -14.2223784726       -7.1528513467       -8.8347169414  MEMB      64              0.0000000000
      8807        64  DOPC      H10X          -14.8753835893       -6.3462626200       -8.4607599256  MEMB      64              0.0000000000
      8808        64  DOPC      C311          -13.0540318336       -7.5239598823       -7.9496837180  MEMB      64              0.0000000000
      8809        64  DOPC      H11X          -12.1238330281       -7.1924636318       -8.4687668053  MEMB      64              0.0000000000
      8810        64  DOPC      H11Y          -12.9908182282       -8.6303679726       -7.8674336058  MEMB      64              0.0000000000
      8811        64  DOPC      C312          -12.9588583854       -6.9258609653       -6.5188596924  MEMB      64              0.0000000000
      8812        64  DOPC      H12X          -13.0598821270       -5.8201401874       -6.5704169607  MEMB      64              0.0000000000
      8813        64  DOPC      H12Y          -11.9348712338       -7.1340221198       -6.1345254898  MEMB      64              0.0000000000
      8814        64  DOPC      C313          -13.9467824340       -7.4723607769       -5.4719869865  MEMB      64              0.0000000000
      8815        64  DOPC      H13X          -14.9777102424       -7.3844755588       -5.8779845518  MEMB      64              0.0000000000
      8816        64  DOPC      H13Y          -13.7575335303       -8.5524808500       -5.2805863433  MEMB      64              0.0000000000
      8817        64  DOPC      C314          -13.8696304308       -6.6937740376       -4.1407358795  MEMB      64              0.0000000000
      8818        64  DOPC      H14X          -13.0307176169       -7.0785979472       -3.5196264873  MEMB      64              0.0000000000
      8819        64  DOPC      H14Y          -13.6447769166       -5.6268271141       -4.3762533643  MEMB      64              0.0000000000
      8820        64  DOPC      C315          -15.1860359348       -6.7115619325       -3.3435991154  MEMB      64              0.0000000000
      8821        64  DOPC      H15X          -15.9695263783       -6.2674423150       -3.9980983291  MEMB      64              0.0000000000
      8822        64  DOPC      H15Y          -15.0931172983       -6.0555107542       -2.4470756507  MEMB      64              0.0000000000
      8823        64  DOPC      C316          -15.6324924412       -8.1091035637       -2.8841703787  MEMB      64              0.0000000000
      8824        64  DOPC      H16X          -15.2452275941       -8.8854765813       -3.5818415479  MEMB      64              0.0000000000
      8825        64  DOPC      H16Y          -15.1782424655       -8.3097100578       -1.8912177403  MEMB      64              0.0000000000
      8826        64  DOPC      C317          -17.1564575930       -8.2956577576       -2.7797544599  MEMB      64              0.0000000000
      8827        64  DOPC      H17X          -17.5596845800       -8.5029111555       -3.7964663714  MEMB      64              0.0000000000
      8828        64  DOPC      H17Y          -17.3482306118       -9.2028550775       -2.1589948060  MEMB      64              0.0000000000
      8829        64  DOPC      C318          -17.9153684716       -7.1088163641       -2.1846914280  MEMB      64              0.0000000000
      8830        64  DOPC      H18X          -17.8819366488       -6.2299465007       -2.8650511383  MEMB      64              0.0000000000
      8831        64  DOPC      H18Y          -18.9815191500       -7.3748361984       -2.0214592778  MEMB      64              0.0000000000
      8832        64  DOPC      H18Z          -17.4760508177       -6.8111192719       -1.2106846593  MEMB      64              0.0000000000
      8833        65  DOPC      N               6.1606436010      -14.1330896745      -18.1207919940  MEMB      65              0.0000000000
      8834        65  DOPC      C12             5.7822807636      -15.5170111655      -18.5377469611  MEMB      65              0.0000000000
      8835        65  DOPC      H12A            4.7256050503      -15.6624606247      -18.3415299779  MEMB      65              0.0000000000
      8836        65  DOPC      H12B            6.3532420780      -16.2242709519      -17.9511388803  MEMB      65              0.0000000000
      8837        65  DOPC      C13             7.5293231470      -13.7394524362      -18.5982494081  MEMB      65              0.0000000000
      8838        65  DOPC      H13A            7.8028449947      -12.7367510664      -18.2991233211  MEMB      65              0.0000000000
      8839        65  DOPC      H13B            8.2977648300      -14.4355047061      -18.2597124545  MEMB      65              0.0000000000
      8840        65  DOPC      H13C            7.5563720872      -13.7630490254      -19.6929911252  MEMB      65              0.0000000000
      8841        65  DOPC      C14             6.1271067274      -14.0463718403      -16.6362271913  MEMB      65              0.0000000000
      8842        65  DOPC      H14A            5.1583233325      -14.3144525846      -16.2357129472  MEMB      65              0.0000000000
      8843        65  DOPC      H14B            6.8945492423      -14.6506309962      -16.1761721908  MEMB      65              0.0000000000
      8844        65  DOPC      H14C            6.3222087995      -13.0289920778      -16.3195612878  MEMB      65              0.0000000000
      8845        65  DOPC      C15             5.1582309937      -13.2191259806      -18.7192660978  MEMB      65              0.0000000000
      8846        65  DOPC      H15A            5.4961583190      -12.1946581675      -18.6022836073  MEMB      65              0.0000000000
      8847        65  DOPC      H15B            4.1862993372      -13.2910324336      -18.2259562851  MEMB      65              0.0000000000
      8848        65  DOPC      H15C            4.9924771140      -13.3656339807      -19.7747523921  MEMB      65              0.0000000000
      8849        65  DOPC      C11             6.0903903216      -15.8265576477      -19.9889525863  MEMB      65              0.0000000000
      8850        65  DOPC      H11A            5.3146540963      -16.5280522152      -20.3815576252  MEMB      65              0.0000000000
      8851        65  DOPC      H11B            6.0394589385      -14.9161193308      -20.6313345061  MEMB      65              0.0000000000
      8852        65  DOPC      P               7.5645657777      -17.9193643152      -20.0962033826  MEMB      65              0.0000000000
      8853        65  DOPC      O13             8.9835449623      -18.3205019135      -20.0436488195  MEMB      65              0.0000000000
      8854        65  DOPC      O14             6.7639700293      -18.3565914106      -21.2717212216  MEMB      65              0.0000000000
      8855        65  DOPC      O12             7.4128060318      -16.3565452183      -20.0291570891  MEMB      65              0.0000000000
      8856        65  DOPC      O11             6.8552712418      -18.3621194599      -18.7462911137  MEMB      65              0.0000000000
      8857        65  DOPC      C1              7.4910197453      -19.2535673636      -17.8221640975  MEMB      65              0.0000000000
      8858        65  DOPC      HA              7.8723285964      -20.1671981974      -18.3278184159  MEMB      65              0.0000000000
      8859        65  DOPC      HB              6.7137938783      -19.5826816698      -17.0944552104  MEMB      65              0.0000000000
      8860        65  DOPC      C2              8.6153291720      -18.6025604899      -16.9501823247  MEMB      65              0.0000000000
      8861        65  DOPC      HS              9.5457674219      -18.5111815476      -17.5569960960  MEMB      65              0.0000000000
      8862        65  DOPC      O21             8.7638289759      -19.4432878628      -15.7903059266  MEMB      65              0.0000000000
      8863        65  DOPC      C21            10.0001062610      -19.6937125081      -15.3674009903  MEMB      65              0.0000000000
      8864        65  DOPC      O22            11.0265313658      -19.2713780514      -15.8488756712  MEMB      65              0.0000000000
      8865        65  DOPC      C22             9.8666582302      -20.4676143498      -14.0570485133  MEMB      65              0.0000000000
      8866        65  DOPC      H2R            10.8604693509      -20.9124561685      -13.8509728222  MEMB      65              0.0000000000
      8867        65  DOPC      H2S             9.1498700838      -21.2946489487      -14.2118628426  MEMB      65              0.0000000000
      8868        65  DOPC      C3              8.1370777678      -17.1806828173      -16.5162374490  MEMB      65              0.0000000000
      8869        65  DOPC      HX              7.1228048950      -17.3102650254      -16.0839555291  MEMB      65              0.0000000000
      8870        65  DOPC      HY              8.0392280842      -16.5709492614      -17.4400796401  MEMB      65              0.0000000000
      8871        65  DOPC      O31             8.9539146840      -16.5548073496      -15.5120678845  MEMB      65              0.0000000000
      8872        65  DOPC      C31             9.8495613824      -15.6807813440      -15.9594834676  MEMB      65              0.0000000000
      8873        65  DOPC      O32             9.8642626677      -15.2046983894      -17.0824642347  MEMB      65              0.0000000000
      8874        65  DOPC      C32            10.8371984829      -15.3513087057      -14.8282230633  MEMB      65              0.0000000000
      8875        65  DOPC      H2X            11.8577697167      -15.2740271456      -15.2597980768  MEMB      65              0.0000000000
      8876        65  DOPC      H2Y            10.5257354290      -14.3798722607      -14.4128949678  MEMB      65              0.0000000000
      8877        65  DOPC      C23             9.3715079108      -19.4689761185      -12.9760255535  MEMB      65              0.0000000000
      8878        65  DOPC      H3R             8.5572569730      -18.8367996169      -13.3973276436  MEMB      65              0.0000000000
      8879        65  DOPC      H3S            10.2266674778      -18.7941325088      -12.7782534506  MEMB      65              0.0000000000
      8880        65  DOPC      C24             8.8751768692      -20.0168777643      -11.6210126813  MEMB      65              0.0000000000
      8881        65  DOPC      H4R             8.7335595950      -19.1362684468      -10.9528205056  MEMB      65              0.0000000000
      8882        65  DOPC      H4S             9.6644990857      -20.6555721746      -11.1769393445  MEMB      65              0.0000000000
      8883        65  DOPC      C25             7.5367789676      -20.7752298968      -11.6998907337  MEMB      65              0.0000000000
      8884        65  DOPC      H5R             7.7628043506      -21.7968335592      -12.0702771766  MEMB      65              0.0000000000
      8885        65  DOPC      H5S             6.8975732427      -20.2827285131      -12.4630803377  MEMB      65              0.0000000000
      8886        65  DOPC      C26             6.7193853512      -20.9312115112      -10.3888089221  MEMB      65              0.0000000000
      8887        65  DOPC      H6R             7.3239419940      -21.5040437446       -9.6542413868  MEMB      65              0.0000000000
      8888        65  DOPC      H6S             5.8377216215      -21.5706480627      -10.6237093722  MEMB      65              0.0000000000
      8889        65  DOPC      C27             6.1948510737      -19.6338710893       -9.7309553921  MEMB      65              0.0000000000
      8890        65  DOPC      H7R             5.0786506397      -19.6471028488       -9.6920529430  MEMB      65              0.0000000000
      8891        65  DOPC      H7S             6.4836779272      -18.7479561838      -10.3407188305  MEMB      65              0.0000000000
      8892        65  DOPC      C28             6.6756232553      -19.4569443191       -8.2816918637  MEMB      65              0.0000000000
      8893        65  DOPC      H8R             6.2454479299      -20.2632521319       -7.6457102053  MEMB      65              0.0000000000
      8894        65  DOPC      H8S             6.2469422360      -18.5030605678       -7.8932171105  MEMB      65              0.0000000000
      8895        65  DOPC      C29             8.1800450362      -19.4872552372       -8.1775047711  MEMB      65              0.0000000000
      8896        65  DOPC      H9R             8.6157848681      -20.4891770514       -8.0371238860  MEMB      65              0.0000000000
      8897        65  DOPC      C210            9.0000893349      -18.4260427173       -8.1758637760  MEMB      65              0.0000000000
      8898        65  DOPC      H10R           10.0815191858      -18.5958181067       -8.0521079179  MEMB      65              0.0000000000
      8899        65  DOPC      C211            8.5918859749      -16.9812563568       -8.2768832633  MEMB      65              0.0000000000
      8900        65  DOPC      H11R            7.5669615706      -16.8449590580       -8.6909826398  MEMB      65              0.0000000000
      8901        65  DOPC      H11S            9.2727617627      -16.4473391044       -8.9672755536  MEMB      65              0.0000000000
      8902        65  DOPC      C212            8.6654024849      -16.3147003083       -6.8978568011  MEMB      65              0.0000000000
      8903        65  DOPC      H12R            8.8784216597      -15.2297800431       -7.0550403670  MEMB      65              0.0000000000
      8904        65  DOPC      H12S            9.4935010917      -16.7197846131       -6.2787395095  MEMB      65              0.0000000000
      8905        65  DOPC      C213            7.3423365794      -16.4092655955       -6.1349512764  MEMB      65              0.0000000000
      8906        65  DOPC      H13R            6.4949942104      -16.2484571477       -6.8336506045  MEMB      65              0.0000000000
      8907        65  DOPC      H13S            7.3367366317      -15.5786046527       -5.4032567871  MEMB      65              0.0000000000
      8908        65  DOPC      C214            7.0959256746      -17.6960123001       -5.3482681654  MEMB      65              0.0000000000
      8909        65  DOPC      H14R            7.9231678471      -17.8311435827       -4.6254224847  MEMB      65              0.0000000000
      8910        65  DOPC      H14S            7.1084062215      -18.5889263645       -5.9878997303  MEMB      65              0.0000000000
      8911        65  DOPC      C215            5.7295513922      -17.6595980340       -4.6574110463  MEMB      65              0.0000000000
      8912        65  DOPC      H15R            4.9472406697      -18.0215327746       -5.3601000276  MEMB      65              0.0000000000
      8913        65  DOPC      H15S            5.5086177845      -16.5959652289       -4.4241851121  MEMB      65              0.0000000000
      8914        65  DOPC      C216            5.7078571820      -18.4385144977       -3.3422214489  MEMB      65              0.0000000000
      8915        65  DOPC      H16R            6.1426210640      -19.4501534059       -3.4991096841  MEMB      65              0.0000000000
      8916        65  DOPC      H16S            4.6707591702      -18.5583337242       -2.9853282907  MEMB      65              0.0000000000
      8917        65  DOPC      C217            6.4700225385      -17.6556444212       -2.2759462021  MEMB      65              0.0000000000
      8918        65  DOPC      H17R            5.9409500843      -16.6897555912       -2.0936686447  MEMB      65              0.0000000000
      8919        65  DOPC      H17S            7.4602826018      -17.4214187152       -2.7094420528  MEMB      65              0.0000000000
      8920        65  DOPC      C218            6.7045675112      -18.3688598866       -0.9530461617  MEMB      65              0.0000000000
      8921        65  DOPC      H18R            5.8685187291      -18.1849102219       -0.2708688100  MEMB      65              0.0000000000
      8922        65  DOPC      H18S            7.5944015009      -17.9599122127       -0.4353586268  MEMB      65              0.0000000000
      8923        65  DOPC      H18T            6.8512084440      -19.4602659950       -1.0965312175  MEMB      65              0.0000000000
      8924        65  DOPC      C33            10.8191205649      -16.3163893140      -13.6256688713  MEMB      65              0.0000000000
      8925        65  DOPC      H3X            11.3617780006      -17.2503724002      -13.9000433012  MEMB      65              0.0000000000
      8926        65  DOPC      H3Y             9.7665319454      -16.5843143347      -13.3752443625  MEMB      65              0.0000000000
      8927        65  DOPC      C34            11.3972987876      -15.7245954959      -12.3257614473  MEMB      65              0.0000000000
      8928        65  DOPC      H4X            10.9317827277      -14.7359268917      -12.1135512105  MEMB      65              0.0000000000
      8929        65  DOPC      H4Y            12.4885367799      -15.5804480940      -12.4675587555  MEMB      65              0.0000000000
      8930        65  DOPC      C35            11.1215417088      -16.6966465484      -11.1693134906  MEMB      65              0.0000000000
      8931        65  DOPC      H5X            11.3633536577      -17.7106831390      -11.5677564549  MEMB      65              0.0000000000
      8932        65  DOPC      H5Y            10.0418693274      -16.7001995070      -10.9162766094  MEMB      65              0.0000000000
      8933        65  DOPC      C36            12.0153120463      -16.6195151958       -9.9273007741  MEMB      65              0.0000000000
      8934        65  DOPC      H6X            11.7617299029      -17.5106252115       -9.3055997587  MEMB      65              0.0000000000
      8935        65  DOPC      H6Y            13.0670793153      -16.7374858819      -10.2695179667  MEMB      65              0.0000000000
      8936        65  DOPC      C37            11.9374020202      -15.4088993368       -8.9891343338  MEMB      65              0.0000000000
      8937        65  DOPC      H7X            11.8628019279      -14.4666193147       -9.5736951351  MEMB      65              0.0000000000
      8938        65  DOPC      H7Y            11.0374903849      -15.4832485176       -8.3409105603  MEMB      65              0.0000000000
      8939        65  DOPC      C38            13.1881622366      -15.3720508900       -8.0819756320  MEMB      65              0.0000000000
      8940        65  DOPC      H8X            13.1429336726      -14.5262863255       -7.3774502190  MEMB      65              0.0000000000
      8941        65  DOPC      H8Y            14.0634965221      -15.1657819990       -8.7410173440  MEMB      65              0.0000000000
      8942        65  DOPC      C39            13.3905340810      -16.6640627365       -7.3237360493  MEMB      65              0.0000000000
      8943        65  DOPC      H9X            13.6465215216      -17.5173531568       -7.9709701228  MEMB      65              0.0000000000
      8944        65  DOPC      C310           13.3602425411      -16.8519378081       -5.9893215669  MEMB      65              0.0000000000
      8945        65  DOPC      H10X           13.5589403495      -17.8493396267       -5.5748995618  MEMB      65              0.0000000000
      8946        65  DOPC      C311           13.1127331696      -15.8015540617       -4.9500438018  MEMB      65              0.0000000000
      8947        65  DOPC      H11X           13.6068485281      -14.8633504402       -5.2705220925  MEMB      65              0.0000000000
      8948        65  DOPC      H11Y           13.5972996839      -16.0751234650       -3.9916111385  MEMB      65              0.0000000000
      8949        65  DOPC      C312           11.6187308865      -15.5001443900       -4.7328946240  MEMB      65              0.0000000000
      8950        65  DOPC      H12X           11.0732301214      -15.5129516830       -5.6976120128  MEMB      65              0.0000000000
      8951        65  DOPC      H12Y           11.5543413276      -14.4664000224       -4.3542333544  MEMB      65              0.0000000000
      8952        65  DOPC      C313           10.9105030999      -16.3520205462       -3.6762519185  MEMB      65              0.0000000000
      8953        65  DOPC      H13X           10.4370897718      -17.2267175759       -4.1516016259  MEMB      65              0.0000000000
      8954        65  DOPC      H13Y           11.6287988018      -16.6707515786       -2.8956733817  MEMB      65              0.0000000000
      8955        65  DOPC      C314            9.7267343139      -15.6570402126       -3.0221647406  MEMB      65              0.0000000000
      8956        65  DOPC      H14X            9.8824008596      -14.5613898682       -2.9641110756  MEMB      65              0.0000000000
      8957        65  DOPC      H14Y            8.8526778537      -15.8445581638       -3.6887048746  MEMB      65              0.0000000000
      8958        65  DOPC      C315            9.3832877377      -16.1998030545       -1.6368351832  MEMB      65              0.0000000000
      8959        65  DOPC      H15X            9.4538041367      -17.3100412609       -1.6012872441  MEMB      65              0.0000000000
      8960        65  DOPC      H15Y            8.3166127229      -15.9212412911       -1.4620890000  MEMB      65              0.0000000000
      8961        65  DOPC      C316           10.1654111891      -15.5688453356       -0.4917885457  MEMB      65              0.0000000000
      8962        65  DOPC      H16X           11.1679729668      -16.0451766484       -0.4078682657  MEMB      65              0.0000000000
      8963        65  DOPC      H16Y           10.3270446761      -14.4872950818       -0.7081160428  MEMB      65              0.0000000000
      8964        65  DOPC      C317            9.3627740981      -15.6980451856        0.8086287358  MEMB      65              0.0000000000
      8965        65  DOPC      H17X            9.0320945406      -14.6898257163        1.1394672781  MEMB      65              0.0000000000
      8966        65  DOPC      H17Y            8.4336382861      -16.2822008345        0.6230126202  MEMB      65              0.0000000000
      8967        65  DOPC      C318           10.1235282006      -16.3939593693        1.9225746026  MEMB      65              0.0000000000
      8968        65  DOPC      H18X           10.4105579300      -17.4216804720        1.6133427055  MEMB      65              0.0000000000
      8969        65  DOPC      H18Y           11.0459158958      -15.8268583550        2.1545678933  MEMB      65              0.0000000000
      8970        65  DOPC      H18Z            9.5055423722      -16.4584526958        2.8440349498  MEMB      65              0.0000000000
      8971        66  DOPC      N               9.8897040495       13.4613526478      -19.8390579968  MEMB      66              0.0000000000
      8972        66  DOPC      C12             8.7451218337       14.3128274631      -20.4027829644  MEMB      66              0.0000000000
      8973        66  DOPC      H12A            8.5596651453       14.1011140539      -21.4470199322  MEMB      66              0.0000000000
      8974        66  DOPC      H12B            9.0660784166       15.3604735583      -20.3578621444  MEMB      66              0.0000000000
      8975        66  DOPC      C13             9.3934879846       12.1458142841      -19.3199371381  MEMB      66              0.0000000000
      8976        66  DOPC      H13A            8.5447408737       12.3168588918      -18.6454043953  MEMB      66              0.0000000000
      8977        66  DOPC      H13B            9.0572340371       11.5166483172      -20.1316792018  MEMB      66              0.0000000000
      8978        66  DOPC      H13C           10.1641669760       11.6487212322      -18.7453863004  MEMB      66              0.0000000000
      8979        66  DOPC      C14            10.5328682462       14.1799274925      -18.7063541009  MEMB      66              0.0000000000
      8980        66  DOPC      H14A            9.7916716023       14.3250202451      -17.9209518014  MEMB      66              0.0000000000
      8981        66  DOPC      H14B           11.4031606521       13.6586077023      -18.3392407440  MEMB      66              0.0000000000
      8982        66  DOPC      H14C           10.8013856614       15.1861525209      -19.0157757760  MEMB      66              0.0000000000
      8983        66  DOPC      C15            10.9242213008       13.2982205274      -20.8945004323  MEMB      66              0.0000000000
      8984        66  DOPC      H15A           11.4239610259       14.2446654853      -21.1050162475  MEMB      66              0.0000000000
      8985        66  DOPC      H15B           10.5028904319       12.9676714536      -21.8454088837  MEMB      66              0.0000000000
      8986        66  DOPC      H15C           11.6801005776       12.5734463433      -20.6254635527  MEMB      66              0.0000000000
      8987        66  DOPC      C11             7.3904379138       14.2859954520      -19.6680629127  MEMB      66              0.0000000000
      8988        66  DOPC      H11A            6.6256405112       14.8428176493      -20.2661625173  MEMB      66              0.0000000000
      8989        66  DOPC      H11B            6.9972736563       13.2498944639      -19.5736514814  MEMB      66              0.0000000000
      8990        66  DOPC      P               7.7707061587       16.4248066878      -18.2600409368  MEMB      66              0.0000000000
      8991        66  DOPC      O13             6.5463358871       17.0657154061      -18.7735764933  MEMB      66              0.0000000000
      8992        66  DOPC      O14             9.0601369224       16.7596664503      -18.9403849593  MEMB      66              0.0000000000
      8993        66  DOPC      O12             7.5623539461       14.8531134789      -18.3783988376  MEMB      66              0.0000000000
      8994        66  DOPC      O11             7.9860444791       16.6414906445      -16.7138074016  MEMB      66              0.0000000000
      8995        66  DOPC      C1              9.1075968306       16.0350848812      -16.0735366046  MEMB      66              0.0000000000
      8996        66  DOPC      HA              9.3110097022       16.5929601903      -15.1334328611  MEMB      66              0.0000000000
      8997        66  DOPC      HB             10.0260963518       16.1071360001      -16.6986479354  MEMB      66              0.0000000000
      8998        66  DOPC      C2              8.7821115571       14.5727548754      -15.7063482983  MEMB      66              0.0000000000
      8999        66  DOPC      HS              8.5363482267       14.0258991634      -16.6413398484  MEMB      66              0.0000000000
      9000        66  DOPC      O21             7.6597938829       14.6105850143      -14.8213706246  MEMB      66              0.0000000000
      9001        66  DOPC      C21             6.9710457144       13.5124724244      -14.8061359864  MEMB      66              0.0000000000
      9002        66  DOPC      O22             7.1423660156       12.5258648973      -15.5034400867  MEMB      66              0.0000000000
      9003        66  DOPC      C22             6.0307033349       13.5721406164      -13.6189860233  MEMB      66              0.0000000000
      9004        66  DOPC      H2R             5.0142161607       13.3042287277      -13.9700716665  MEMB      66              0.0000000000
      9005        66  DOPC      H2S             6.0047697184       14.5948120588      -13.1926400855  MEMB      66              0.0000000000
      9006        66  DOPC      C3              9.9636124350       13.8037410023      -15.0670408172  MEMB      66              0.0000000000
      9007        66  DOPC      HX             10.8614181431       13.9909280117      -15.7029148617  MEMB      66              0.0000000000
      9008        66  DOPC      HY              9.7424201979       12.7113497353      -15.0987186123  MEMB      66              0.0000000000
      9009        66  DOPC      O31            10.1504504677       14.2324039388      -13.7083102491  MEMB      66              0.0000000000
      9010        66  DOPC      C31            11.3387369542       13.9301854739      -13.2114650777  MEMB      66              0.0000000000
      9011        66  DOPC      O32            12.2410912362       13.4112923991      -13.8398191211  MEMB      66              0.0000000000
      9012        66  DOPC      C32            11.4276738388       14.4388801840      -11.7769482006  MEMB      66              0.0000000000
      9013        66  DOPC      H2X            11.9229436807       15.4290960090      -11.8610676091  MEMB      66              0.0000000000
      9014        66  DOPC      H2Y            10.4053041057       14.5809036986      -11.3738789167  MEMB      66              0.0000000000
      9015        66  DOPC      C23             6.5265516561       12.5901242869      -12.5453777986  MEMB      66              0.0000000000
      9016        66  DOPC      H3R             7.4684052961       12.9755381285      -12.1035038173  MEMB      66              0.0000000000
      9017        66  DOPC      H3S             6.8002666047       11.6207575276      -13.0209979099  MEMB      66              0.0000000000
      9018        66  DOPC      C24             5.4517070258       12.2967631443      -11.4913799977  MEMB      66              0.0000000000
      9019        66  DOPC      H4R             5.7333363384       11.3484119716      -10.9929775630  MEMB      66              0.0000000000
      9020        66  DOPC      H4S             4.4787313496       12.1210146883      -12.0033165752  MEMB      66              0.0000000000
      9021        66  DOPC      C25             5.2939431972       13.3700107872      -10.4087397609  MEMB      66              0.0000000000
      9022        66  DOPC      H5R             4.4429143374       13.1008882875       -9.7409671348  MEMB      66              0.0000000000
      9023        66  DOPC      H5S             5.0481874283       14.3397047048      -10.8989852978  MEMB      66              0.0000000000
      9024        66  DOPC      C26             6.5701982058       13.5245215417       -9.5752293809  MEMB      66              0.0000000000
      9025        66  DOPC      H6R             7.4178265277       13.7274237645      -10.2643924025  MEMB      66              0.0000000000
      9026        66  DOPC      H6S             6.8224233844       12.5905906469       -9.0316138330  MEMB      66              0.0000000000
      9027        66  DOPC      C27             6.5251444618       14.6940104932       -8.5930056527  MEMB      66              0.0000000000
      9028        66  DOPC      H7R             6.0687621181       14.3880344658       -7.6256860004  MEMB      66              0.0000000000
      9029        66  DOPC      H7S             5.8867329609       15.4992376582       -9.0233222298  MEMB      66              0.0000000000
      9030        66  DOPC      C28             7.9330510762       15.2735855985       -8.4002100689  MEMB      66              0.0000000000
      9031        66  DOPC      H8R             7.8433285602       16.2992457707       -7.9736176029  MEMB      66              0.0000000000
      9032        66  DOPC      H8S             8.3983356730       15.4091382095       -9.3987435460  MEMB      66              0.0000000000
      9033        66  DOPC      C29             8.8044395996       14.4031604118       -7.5388625931  MEMB      66              0.0000000000
      9034        66  DOPC      H9R             9.4355420668       13.6499214987       -8.0360103465  MEMB      66              0.0000000000
      9035        66  DOPC      C210            8.8215562888       14.5007799638       -6.2082850523  MEMB      66              0.0000000000
      9036        66  DOPC      H10R            9.4833893786       13.8461926225       -5.6169327202  MEMB      66              0.0000000000
      9037        66  DOPC      C211            7.9830359453       15.4693630983       -5.4180576155  MEMB      66              0.0000000000
      9038        66  DOPC      H11R            7.1181647404       15.8839287964       -5.9832634583  MEMB      66              0.0000000000
      9039        66  DOPC      H11S            8.5935452669       16.3427254957       -5.1042803371  MEMB      66              0.0000000000
      9040        66  DOPC      C212            7.4426145020       14.7212771258       -4.1995049652  MEMB      66              0.0000000000
      9041        66  DOPC      H12R            6.9539557148       15.4534225944       -3.5142040294  MEMB      66              0.0000000000
      9042        66  DOPC      H12S            8.2762024484       14.2146984124       -3.6596468007  MEMB      66              0.0000000000
      9043        66  DOPC      C213            6.4728424930       13.6035737280       -4.5326429259  MEMB      66              0.0000000000
      9044        66  DOPC      H13R            7.0239083283       12.7953170261       -5.0630718606  MEMB      66              0.0000000000
      9045        66  DOPC      H13S            5.6843468571       13.9991704977       -5.2108158299  MEMB      66              0.0000000000
      9046        66  DOPC      C214            5.8406307041       13.0252167839       -3.2687836938  MEMB      66              0.0000000000
      9047        66  DOPC      H14R            5.0883611580       12.2881794219       -3.6226961860  MEMB      66              0.0000000000
      9048        66  DOPC      H14S            5.3182406148       13.8196560012       -2.6877367279  MEMB      66              0.0000000000
      9049        66  DOPC      C215            6.7823073000       12.2574166742       -2.3379355887  MEMB      66              0.0000000000
      9050        66  DOPC      H15R            7.2484983030       12.9429489216       -1.6042746135  MEMB      66              0.0000000000
      9051        66  DOPC      H15S            7.5994296307       11.7854836591       -2.9261211474  MEMB      66              0.0000000000
      9052        66  DOPC      C216            5.9756841560       11.1603909884       -1.6408741728  MEMB      66              0.0000000000
      9053        66  DOPC      H16R            5.6331167506       10.4896061323       -2.4523221054  MEMB      66              0.0000000000
      9054        66  DOPC      H16S            5.0600095424       11.5958169754       -1.1820825419  MEMB      66              0.0000000000
      9055        66  DOPC      C217            6.7374649409       10.3751420071       -0.5758678671  MEMB      66              0.0000000000
      9056        66  DOPC      H17R            7.7673482673       10.1476798811       -0.9327358790  MEMB      66              0.0000000000
      9057        66  DOPC      H17S            6.2172591359        9.4014126327       -0.4136799518  MEMB      66              0.0000000000
      9058        66  DOPC      C218            6.7751811480       11.1282414582        0.7525556075  MEMB      66              0.0000000000
      9059        66  DOPC      H18R            7.2527675892       12.1223600479        0.6219057956  MEMB      66              0.0000000000
      9060        66  DOPC      H18S            7.3504787362       10.5605845633        1.5138047884  MEMB      66              0.0000000000
      9061        66  DOPC      H18T            5.7446690074       11.2916905853        1.1360137734  MEMB      66              0.0000000000
      9062        66  DOPC      C33            12.2984819078       13.5876394228      -10.8271114463  MEMB      66              0.0000000000
      9063        66  DOPC      H3X            12.4556999711       14.1873439060       -9.9002303433  MEMB      66              0.0000000000
      9064        66  DOPC      H3Y            13.2993769941       13.4077236041      -11.2774809623  MEMB      66              0.0000000000
      9065        66  DOPC      C34            11.6787887003       12.2551015589      -10.3969877820  MEMB      66              0.0000000000
      9066        66  DOPC      H4X            11.4644923696       11.6255304441      -11.2891180775  MEMB      66              0.0000000000
      9067        66  DOPC      H4Y            10.7116291195       12.4640895874       -9.8871992995  MEMB      66              0.0000000000
      9068        66  DOPC      C35            12.6273337808       11.4900287475       -9.4585019523  MEMB      66              0.0000000000
      9069        66  DOPC      H5X            12.8755843054       12.1338905862       -8.5837404202  MEMB      66              0.0000000000
      9070        66  DOPC      H5Y            13.5757608112       11.2726221069       -9.9986742583  MEMB      66              0.0000000000
      9071        66  DOPC      C36            12.0326180512       10.1774053928       -8.9363657756  MEMB      66              0.0000000000
      9072        66  DOPC      H6X            11.8945568945        9.4872699913       -9.7969661418  MEMB      66              0.0000000000
      9073        66  DOPC      H6Y            12.7506794177        9.7003368342       -8.2323029879  MEMB      66              0.0000000000
      9074        66  DOPC      C37            10.6937822378       10.4250859879       -8.2326263713  MEMB      66              0.0000000000
      9075        66  DOPC      H7X            10.7649488603       11.4277791865       -7.7454562299  MEMB      66              0.0000000000
      9076        66  DOPC      H7Y             9.8945213422       10.4725990008       -9.0090746617  MEMB      66              0.0000000000
      9077        66  DOPC      C38            10.3114321835        9.4048481998       -7.1520175461  MEMB      66              0.0000000000
      9078        66  DOPC      H8X            11.1297710499        9.3388155247       -6.4013465222  MEMB      66              0.0000000000
      9079        66  DOPC      H8Y            10.1808498564        8.3964182325       -7.6022415338  MEMB      66              0.0000000000
      9080        66  DOPC      C39             9.0122011419        9.8988452826       -6.5727075252  MEMB      66              0.0000000000
      9081        66  DOPC      H9X             8.2878592901       10.1713420324       -7.3459836139  MEMB      66              0.0000000000
      9082        66  DOPC      C310            8.7149716156       10.1821511284       -5.2951757198  MEMB      66              0.0000000000
      9083        66  DOPC      H10X            7.7441902514       10.6433063284       -5.0539226840  MEMB      66              0.0000000000
      9084        66  DOPC      C311            9.6798207379       10.0487764331       -4.1555500117  MEMB      66              0.0000000000
      9085        66  DOPC      H11X           10.4212196942        9.2448670906       -4.3654062724  MEMB      66              0.0000000000
      9086        66  DOPC      H11Y            9.1794763822        9.7680885069       -3.2017451601  MEMB      66              0.0000000000
      9087        66  DOPC      C312           10.4363956469       11.3745339032       -3.9957309620  MEMB      66              0.0000000000
      9088        66  DOPC      H12X            9.9164910287       12.0077477780       -3.2535194034  MEMB      66              0.0000000000
      9089        66  DOPC      H12Y           10.4849635253       11.9324344626       -4.9612719440  MEMB      66              0.0000000000
      9090        66  DOPC      C313           11.8836454140       11.0930470102       -3.6102097230  MEMB      66              0.0000000000
      9091        66  DOPC      H13X           11.8798056294       10.3467287658       -2.7871369977  MEMB      66              0.0000000000
      9092        66  DOPC      H13Y           12.3224797523       10.5889105408       -4.5054422636  MEMB      66              0.0000000000
      9093        66  DOPC      C314           12.7839158742       12.2926628316       -3.2531129900  MEMB      66              0.0000000000
      9094        66  DOPC      H14X           13.0784228585       12.2768974379       -2.1899976264  MEMB      66              0.0000000000
      9095        66  DOPC      H14Y           13.7369253689       12.1233105695       -3.8118307666  MEMB      66              0.0000000000
      9096        66  DOPC      C315           12.2445026811       13.6774514927       -3.6465000798  MEMB      66              0.0000000000
      9097        66  DOPC      H15X           11.8089481245       13.5676753679       -4.6611241243  MEMB      66              0.0000000000
      9098        66  DOPC      H15Y           13.0955100838       14.3935616448       -3.6699341469  MEMB      66              0.0000000000
      9099        66  DOPC      C316           11.2550051067       14.3973249118       -2.7203729377  MEMB      66              0.0000000000
      9100        66  DOPC      H16X           10.3869221475       13.7590499409       -2.4609094026  MEMB      66              0.0000000000
      9101        66  DOPC      H16Y           11.7757899652       14.6687285189       -1.7772862265  MEMB      66              0.0000000000
      9102        66  DOPC      C317           10.7584465368       15.7176115691       -3.3203621874  MEMB      66              0.0000000000
      9103        66  DOPC      H17X           11.5890565258       16.4560995711       -3.3334460251  MEMB      66              0.0000000000
      9104        66  DOPC      H17Y           10.4876660441       15.5454150933       -4.3846665008  MEMB      66              0.0000000000
      9105        66  DOPC      C318            9.5855959636       16.2982403340       -2.5271601747  MEMB      66              0.0000000000
      9106        66  DOPC      H18X            8.8282456597       15.5198242527       -2.3179958846  MEMB      66              0.0000000000
      9107        66  DOPC      H18Y            9.9024631710       16.6358201233       -1.5291702585  MEMB      66              0.0000000000
      9108        66  DOPC      H18Z            9.0969868344       17.1318571979       -3.0778708893  MEMB      66              0.0000000000
      9109        67  DOPC      N              17.6569817931        0.7335354714      -20.9996865978  MEMB      67              0.0000000000
      9110        67  DOPC      C12            16.8257356055        1.2086078877      -19.8211841260  MEMB      67              0.0000000000
      9111        67  DOPC      H12A           16.4138557447        2.1844979974      -20.0396175432  MEMB      67              0.0000000000
      9112        67  DOPC      H12B           17.4805700991        1.3216516212      -18.9542543608  MEMB      67              0.0000000000
      9113        67  DOPC      C13            16.7606868730        0.3791228993      -22.1421732163  MEMB      67              0.0000000000
      9114        67  DOPC      H13A           16.0225427845       -0.3454131712      -21.7954043360  MEMB      67              0.0000000000
      9115        67  DOPC      H13B           16.2611329776        1.2453391430      -22.5556063028  MEMB      67              0.0000000000
      9116        67  DOPC      H13C           17.3521352205       -0.1086122004      -22.9088287100  MEMB      67              0.0000000000
      9117        67  DOPC      C14            18.3876001374       -0.5123906294      -20.6154191891  MEMB      67              0.0000000000
      9118        67  DOPC      H14A           17.6479658281       -1.2690977107      -20.3319241139  MEMB      67              0.0000000000
      9119        67  DOPC      H14B           19.0162242696       -0.8855967495      -21.4086418800  MEMB      67              0.0000000000
      9120        67  DOPC      H14C           18.9940976079       -0.3387537692      -19.7306951260  MEMB      67              0.0000000000
      9121        67  DOPC      C15            18.6144803907        1.7823349308      -21.4463082321  MEMB      67              0.0000000000
      9122        67  DOPC      H15A           19.4095649741        1.9553231894      -20.7249568660  MEMB      67              0.0000000000
      9123        67  DOPC      H15B           18.0942977070        2.7112925510      -21.6740663602  MEMB      67              0.0000000000
      9124        67  DOPC      H15C           19.0894420358        1.4410303509      -22.3584764592  MEMB      67              0.0000000000
      9125        67  DOPC      C11            15.6889405324        0.2719483610      -19.3348169307  MEMB      67              0.0000000000
      9126        67  DOPC      H11A           15.0332204760        0.8348189612      -18.6234244753  MEMB      67              0.0000000000
      9127        67  DOPC      H11B           15.0254881326       -0.0183707145      -20.1734408830  MEMB      67              0.0000000000
      9128        67  DOPC      P              16.7089332599       -0.7798691811      -17.2299776008  MEMB      67              0.0000000000
      9129        67  DOPC      O13            17.3295844551       -2.0506881363      -16.7842111558  MEMB      67              0.0000000000
      9130        67  DOPC      O14            15.5928942679       -0.2478451838      -16.4336821014  MEMB      67              0.0000000000
      9131        67  DOPC      O12            16.2218784352       -0.9162310718      -18.7367708983  MEMB      67              0.0000000000
      9132        67  DOPC      O11            17.7868920583        0.3627889283      -17.3945628580  MEMB      67              0.0000000000
      9133        67  DOPC      C1             19.1841455423        0.0915508944      -17.4388199127  MEMB      67              0.0000000000
      9134        67  DOPC      HA             19.6625526366        0.7767095106      -18.1741316652  MEMB      67              0.0000000000
      9135        67  DOPC      HB             19.4129371782       -0.9374237079      -17.7965660534  MEMB      67              0.0000000000
      9136        67  DOPC      C2             19.8346842824        0.3897307927      -16.0658537512  MEMB      67              0.0000000000
      9137        67  DOPC      HS             20.9374772459        0.3780208374      -16.1811116896  MEMB      67              0.0000000000
      9138        67  DOPC      O21            19.4885663297       -0.5916898071      -15.0847030618  MEMB      67              0.0000000000
      9139        67  DOPC      C21            19.8382307291       -1.8401732584      -15.3395715569  MEMB      67              0.0000000000
      9140        67  DOPC      O22            20.5831357015       -2.2300489700      -16.2255863530  MEMB      67              0.0000000000
      9141        67  DOPC      C22            19.2860603801       -2.7078656475      -14.2040189902  MEMB      67              0.0000000000
      9142        67  DOPC      H2R            19.6402993967       -3.7456421462      -14.3524987181  MEMB      67              0.0000000000
      9143        67  DOPC      H2S            18.1762667088       -2.6916150231      -14.2772167901  MEMB      67              0.0000000000
      9144        67  DOPC      C3             19.4186217797        1.8284458128      -15.5776152430  MEMB      67              0.0000000000
      9145        67  DOPC      HX             19.6521037805        2.5044935512      -16.4217432613  MEMB      67              0.0000000000
      9146        67  DOPC      HY             20.0685542784        2.1518765350      -14.7362389579  MEMB      67              0.0000000000
      9147        67  DOPC      O31            18.0094854899        1.9947247430      -15.2738006240  MEMB      67              0.0000000000
      9148        67  DOPC      C31            17.7131194423        1.4913545883      -14.0742702670  MEMB      67              0.0000000000
      9149        67  DOPC      O32            18.5679898600        1.2140785206      -13.2457395487  MEMB      67              0.0000000000
      9150        67  DOPC      C32            16.1878738085        1.3655548483      -13.8826452990  MEMB      67              0.0000000000
      9151        67  DOPC      H2X            15.6741169590        2.1064783152      -14.5272703918  MEMB      67              0.0000000000
      9152        67  DOPC      H2Y            15.9047093210        0.3537870877      -14.2356105104  MEMB      67              0.0000000000
      9153        67  DOPC      C23            19.7142365540       -2.1846704290      -12.8158654179  MEMB      67              0.0000000000
      9154        67  DOPC      H3R            19.3570988507       -1.1352760688      -12.6787563955  MEMB      67              0.0000000000
      9155        67  DOPC      H3S            20.8233149182       -2.1786287587      -12.7361075134  MEMB      67              0.0000000000
      9156        67  DOPC      C24            19.1226306001       -3.0159521073      -11.6811157912  MEMB      67              0.0000000000
      9157        67  DOPC      H4R            19.4384456227       -4.0721448215      -11.7903670052  MEMB      67              0.0000000000
      9158        67  DOPC      H4S            18.0134210985       -2.9918710034      -11.7601397815  MEMB      67              0.0000000000
      9159        67  DOPC      C25            19.5558932691       -2.5110448500      -10.3030382568  MEMB      67              0.0000000000
      9160        67  DOPC      H5R            19.3232478632       -1.4336239036      -10.2108078946  MEMB      67              0.0000000000
      9161        67  DOPC      H5S            20.6604854922       -2.6269901270      -10.2241456302  MEMB      67              0.0000000000
      9162        67  DOPC      C26            18.8965097907       -3.3028331496       -9.1704780633  MEMB      67              0.0000000000
      9163        67  DOPC      H6R            19.5022942130       -3.2352399446       -8.2408276642  MEMB      67              0.0000000000
      9164        67  DOPC      H6S            18.8894539439       -4.3592215133       -9.5108012487  MEMB      67              0.0000000000
      9165        67  DOPC      C27            17.4520577427       -2.8852949256       -8.8606551399  MEMB      67              0.0000000000
      9166        67  DOPC      H7R            16.8757844764       -2.9307783827       -9.8121154372  MEMB      67              0.0000000000
      9167        67  DOPC      H7S            17.4267371893       -1.8281461120       -8.5145589413  MEMB      67              0.0000000000
      9168        67  DOPC      C28            16.7597996230       -3.8131356818       -7.8402698185  MEMB      67              0.0000000000
      9169        67  DOPC      H8R            17.0712504426       -4.8631177257       -8.0329255835  MEMB      67              0.0000000000
      9170        67  DOPC      H8S            15.6652893097       -3.7780781651       -8.0405556030  MEMB      67              0.0000000000
      9171        67  DOPC      C29            17.0526263026       -3.4360117816       -6.4102888768  MEMB      67              0.0000000000
      9172        67  DOPC      H9R            18.0897528660       -3.6088330719       -6.0748336836  MEMB      67              0.0000000000
      9173        67  DOPC      C210           16.1652591354       -2.9032628184       -5.5505710991  MEMB      67              0.0000000000
      9174        67  DOPC      H10R           16.4879926988       -2.6900668317       -4.5183511129  MEMB      67              0.0000000000
      9175        67  DOPC      C211           14.7144000390       -2.5747893363       -5.8248585614  MEMB      67              0.0000000000
      9176        67  DOPC      H11R           14.2522181433       -2.2600745822       -4.8631660653  MEMB      67              0.0000000000
      9177        67  DOPC      H11S           14.1734097612       -3.5031384416       -6.1232024777  MEMB      67              0.0000000000
      9178        67  DOPC      C212           14.3474714033       -1.4550597373       -6.8491053568  MEMB      67              0.0000000000
      9179        67  DOPC      H12R           13.2930344805       -1.1991164544       -6.6259745771  MEMB      67              0.0000000000
      9180        67  DOPC      H12S           14.4259484140       -1.8588430074       -7.8800014771  MEMB      67              0.0000000000
      9181        67  DOPC      C213           15.1483762889       -0.1401152204       -6.7429433186  MEMB      67              0.0000000000
      9182        67  DOPC      H13R           15.9536499509       -0.1355019881       -7.4927142246  MEMB      67              0.0000000000
      9183        67  DOPC      H13S           15.6924343048       -0.3156446779       -5.8222194371  MEMB      67              0.0000000000
      9184        67  DOPC      C214           14.3576518706        1.2192008313       -6.6753940334  MEMB      67              0.0000000000
      9185        67  DOPC      H14R           13.4658238891        1.0793853211       -6.0351414377  MEMB      67              0.0000000000
      9186        67  DOPC      H14S           13.9892367991        1.3569303249       -7.7178935872  MEMB      67              0.0000000000
      9187        67  DOPC      C215           15.0504814113        2.6039140741       -6.2805861924  MEMB      67              0.0000000000
      9188        67  DOPC      H15R           14.3572560469        3.3921307435       -6.6318653656  MEMB      67              0.0000000000
      9189        67  DOPC      H15S           16.0033843772        2.6645503730       -6.8078752334  MEMB      67              0.0000000000
      9190        67  DOPC      C216           15.3240608838        2.9266131964       -4.7769722392  MEMB      67              0.0000000000
      9191        67  DOPC      H16R           15.9036381008        2.1370803539       -4.3889766294  MEMB      67              0.0000000000
      9192        67  DOPC      H16S           14.3626642984        2.8124550993       -4.3677745980  MEMB      67              0.0000000000
      9193        67  DOPC      C217           15.9549984637        4.1263217473       -4.0002343186  MEMB      67              0.0000000000
      9194        67  DOPC      H17R           15.1781175468        4.8104925958       -3.6638379548  MEMB      67              0.0000000000
      9195        67  DOPC      H17S           16.5861815684        4.7760425647       -4.5972984106  MEMB      67              0.0000000000
      9196        67  DOPC      C218           16.6551666482        3.7035195127       -2.6748721886  MEMB      67              0.0000000000
      9197        67  DOPC      H18R           15.9026754290        3.3663978067       -1.9424541736  MEMB      67              0.0000000000
      9198        67  DOPC      H18S           17.2016584279        4.5145240318       -2.1774044694  MEMB      67              0.0000000000
      9199        67  DOPC      H18T           17.3939896207        2.8989279247       -2.7984247934  MEMB      67              0.0000000000
      9200        67  DOPC      C33            15.6778369257        1.4734699353      -12.4214949072  MEMB      67              0.0000000000
      9201        67  DOPC      H3X            14.5771853557        1.3099203833      -12.4408711650  MEMB      67              0.0000000000
      9202        67  DOPC      H3Y            15.8218653176        2.4955407013      -12.0230375756  MEMB      67              0.0000000000
      9203        67  DOPC      C34            16.3396345491        0.4350093375      -11.5000411842  MEMB      67              0.0000000000
      9204        67  DOPC      H4X            17.4372830021        0.5448241731      -11.5069347455  MEMB      67              0.0000000000
      9205        67  DOPC      H4Y            16.1406759089       -0.5914675595      -11.8660978911  MEMB      67              0.0000000000
      9206        67  DOPC      C35            16.0015549739        0.5913836949      -10.0277210841  MEMB      67              0.0000000000
      9207        67  DOPC      H5X            16.0269791029       -0.4047513784       -9.5373724981  MEMB      67              0.0000000000
      9208        67  DOPC      H5Y            14.9668194351        0.9938739395       -9.9135210947  MEMB      67              0.0000000000
      9209        67  DOPC      C36            17.0012700883        1.5382531515       -9.3277047753  MEMB      67              0.0000000000
      9210        67  DOPC      H6X            16.8666680261        2.5194073582       -9.8113190783  MEMB      67              0.0000000000
      9211        67  DOPC      H6Y            16.6527708068        1.6242793586       -8.2885521199  MEMB      67              0.0000000000
      9212        67  DOPC      C37            18.5227785362        1.1892803549       -9.2763174110  MEMB      67              0.0000000000
      9213        67  DOPC      H7X            18.5662288046        0.0899388624       -9.1463993833  MEMB      67              0.0000000000
      9214        67  DOPC      H7Y            19.0136646501        1.4444056680      -10.2383188086  MEMB      67              0.0000000000
      9215        67  DOPC      C38            19.3289719169        1.7830128380       -8.0516001038  MEMB      67              0.0000000000
      9216        67  DOPC      H8X            19.8981653095        0.9805640154       -7.5493059036  MEMB      67              0.0000000000
      9217        67  DOPC      H8Y            18.4747006212        1.9971716571       -7.3969908569  MEMB      67              0.0000000000
      9218        67  DOPC      C39            20.2038523580        3.0265088610       -8.2421965634  MEMB      67              0.0000000000
      9219        67  DOPC      H9X            20.0918679714        3.3226862620       -9.2885817013  MEMB      67              0.0000000000
      9220        67  DOPC      C310           21.0889106669        3.8295826232       -7.5566718651  MEMB      67              0.0000000000
      9221        67  DOPC      H10X           21.4639043999        4.6547627584       -8.1824572232  MEMB      67              0.0000000000
      9222        67  DOPC      C311           21.7613961841        4.0070703976       -6.1913814247  MEMB      67              0.0000000000
      9223        67  DOPC      H11X           21.2368619408        4.7341884658       -5.5268089068  MEMB      67              0.0000000000
      9224        67  DOPC      H11Y           22.6868994069        4.5806991657       -6.4647612012  MEMB      67              0.0000000000
      9225        67  DOPC      C312           22.4231261102        2.8606405088       -5.3787255703  MEMB      67              0.0000000000
      9226        67  DOPC      H12X           23.3652496418        3.2787576258       -4.9543725733  MEMB      67              0.0000000000
      9227        67  DOPC      H12Y           22.7260403827        2.0703218402       -6.0861421503  MEMB      67              0.0000000000
      9228        67  DOPC      C313           21.6409887063        2.2430394131       -4.2058372763  MEMB      67              0.0000000000
      9229        67  DOPC      H13X           22.1120536568        2.4610710680       -3.2445945763  MEMB      67              0.0000000000
      9230        67  DOPC      H13Y           20.6973564827        2.7862415316       -4.1047626344  MEMB      67              0.0000000000
      9231        67  DOPC      C314           21.5483579436        0.7052523763       -4.2944240228  MEMB      67              0.0000000000
      9232        67  DOPC      H14X           20.8291610818        0.4129398341       -5.0844314878  MEMB      67              0.0000000000
      9233        67  DOPC      H14Y           22.5446181365        0.3334580925       -4.6319057672  MEMB      67              0.0000000000
      9234        67  DOPC      C315           21.2108453899       -0.0852384249       -3.0092757245  MEMB      67              0.0000000000
      9235        67  DOPC      H15X           22.1623765157       -0.3212849168       -2.4816010388  MEMB      67              0.0000000000
      9236        67  DOPC      H15Y           20.7373478104       -1.0421934620       -3.3082287698  MEMB      67              0.0000000000
      9237        67  DOPC      C316           20.3183635035        0.5844729949       -1.9731900942  MEMB      67              0.0000000000
      9238        67  DOPC      H16X           20.9642304794        1.3330919861       -1.4900316605  MEMB      67              0.0000000000
      9239        67  DOPC      H16Y           19.4462504043        1.0856437326       -2.4267170227  MEMB      67              0.0000000000
      9240        67  DOPC      C317           19.8752657277       -0.3246578296       -0.8230375275  MEMB      67              0.0000000000
      9241        67  DOPC      H17X           20.7914288612       -0.7155991821       -0.3280257641  MEMB      67              0.0000000000
      9242        67  DOPC      H17Y           19.3337972550        0.3041743580       -0.0806575613  MEMB      67              0.0000000000
      9243        67  DOPC      C318           18.9752900918       -1.4902237731       -1.2005866405  MEMB      67              0.0000000000
      9244        67  DOPC      H18X           18.7814332887       -2.0891078188       -0.2907577203  MEMB      67              0.0000000000
      9245        67  DOPC      H18Y           17.9992480387       -1.1294769080       -1.5787392605  MEMB      67              0.0000000000
      9246        67  DOPC      H18Z           19.4556101227       -2.1348615757       -1.9652704891  MEMB      67              0.0000000000
      9247        68  DOPC      N              -9.4977631704      -17.0033756701      -19.8372769773  MEMB      68              0.0000000000
      9248        68  DOPC      C12           -10.6442321445      -16.2667204191      -20.5233889843  MEMB      68              0.0000000000
      9249        68  DOPC      H12A          -10.8492215489      -16.7244742433      -21.4848055166  MEMB      68              0.0000000000
      9250        68  DOPC      H12B          -10.3743073136      -15.2292714116      -20.7090825416  MEMB      68              0.0000000000
      9251        68  DOPC      C13            -8.2042500293      -16.6662538410      -20.5024136838  MEMB      68              0.0000000000
      9252        68  DOPC      H13A           -8.3070638662      -16.7240421089      -21.5795640406  MEMB      68              0.0000000000
      9253        68  DOPC      H13B           -7.9190738760      -15.6483699352      -20.2490380859  MEMB      68              0.0000000000
      9254        68  DOPC      H13C           -7.4280441323      -17.3524253109      -20.2010956712  MEMB      68              0.0000000000
      9255        68  DOPC      C14            -9.7690299297      -18.4793769743      -19.8775154631  MEMB      68              0.0000000000
      9256        68  DOPC      H14A          -10.7833405702      -18.6929329682      -19.5432401172  MEMB      68              0.0000000000
      9257        68  DOPC      H14B           -9.6969282218      -18.8572195203      -20.8985845974  MEMB      68              0.0000000000
      9258        68  DOPC      H14C           -9.0814199286      -19.0247025943      -19.2502723963  MEMB      68              0.0000000000
      9259        68  DOPC      C15            -9.4645375682      -16.4931618126      -18.4452529140  MEMB      68              0.0000000000
      9260        68  DOPC      H15A           -8.8045597299      -16.9931444471      -17.7769281064  MEMB      68              0.0000000000
      9261        68  DOPC      H15B          -10.4931018797      -16.5085103184      -18.0559129290  MEMB      68              0.0000000000
      9262        68  DOPC      H15C           -9.2770854548      -15.4123080946      -18.4709835866  MEMB      68              0.0000000000
      9263        68  DOPC      C11           -11.9674505130      -16.1610830578      -19.7280339154  MEMB      68              0.0000000000
      9264        68  DOPC      H11A          -12.7290649496      -15.8034264719      -20.4358850554  MEMB      68              0.0000000000
      9265        68  DOPC      H11B          -12.2903743569      -17.1565609467      -19.3548968299  MEMB      68              0.0000000000
      9266        68  DOPC      P             -11.5683018462      -13.7269273567      -18.8143138933  MEMB      68              0.0000000000
      9267        68  DOPC      O13           -12.4034993924      -13.1962140078      -19.9171937990  MEMB      68              0.0000000000
      9268        68  DOPC      O14           -10.0905775811      -13.6462240441      -18.9634597203  MEMB      68              0.0000000000
      9269        68  DOPC      O12           -11.8896075708      -15.2663661346      -18.6284605218  MEMB      68              0.0000000000
      9270        68  DOPC      O11           -12.0282241437      -13.1752367253      -17.4099247929  MEMB      68              0.0000000000
      9271        68  DOPC      C1            -13.4212364662      -12.9521051154      -17.1673524052  MEMB      68              0.0000000000
      9272        68  DOPC      HA            -14.0914474377      -13.2114341452      -18.0188217397  MEMB      68              0.0000000000
      9273        68  DOPC      HB            -13.5364611660      -11.8541412286      -17.0365035141  MEMB      68              0.0000000000
      9274        68  DOPC      C2            -13.9855845964      -13.6480520637      -15.8819907105  MEMB      68              0.0000000000
      9275        68  DOPC      HS            -14.9771043391      -13.1870367390      -15.6833662644  MEMB      68              0.0000000000
      9276        68  DOPC      O21           -13.0949740553      -13.4627276997      -14.7588908653  MEMB      68              0.0000000000
      9277        68  DOPC      C21           -13.1014893608      -12.1950035476      -14.3899099519  MEMB      68              0.0000000000
      9278        68  DOPC      O22           -13.8870662711      -11.3511920735      -14.7754112860  MEMB      68              0.0000000000
      9279        68  DOPC      C22           -12.0107571309      -11.9009836489      -13.3773977100  MEMB      68              0.0000000000
      9280        68  DOPC      H2R           -12.2154514913      -10.8565772250      -13.0458661873  MEMB      68              0.0000000000
      9281        68  DOPC      H2S           -11.0611850028      -11.9374639425      -13.9330095805  MEMB      68              0.0000000000
      9282        68  DOPC      C3            -14.2847151078      -15.1759551726      -16.0191093824  MEMB      68              0.0000000000
      9283        68  DOPC      HX            -14.9796392461      -15.2979001837      -16.8775500816  MEMB      68              0.0000000000
      9284        68  DOPC      HY            -14.8436523437      -15.5084034945      -15.1120649603  MEMB      68              0.0000000000
      9285        68  DOPC      O31           -13.1167717679      -15.9791151970      -16.2513226604  MEMB      68              0.0000000000
      9286        68  DOPC      C31           -12.4483687159      -16.2919694097      -15.1567161419  MEMB      68              0.0000000000
      9287        68  DOPC      O32           -12.8792842360      -16.2453317474      -14.0190162274  MEMB      68              0.0000000000
      9288        68  DOPC      C32           -11.0618459117      -16.8003920932      -15.5478510848  MEMB      68              0.0000000000
      9289        68  DOPC      H2X           -11.2141336941      -17.5525303704      -16.3497431752  MEMB      68              0.0000000000
      9290        68  DOPC      H2Y           -10.4974706265      -15.9365293295      -15.9550557265  MEMB      68              0.0000000000
      9291        68  DOPC      C23           -11.8801601545      -12.7879948477      -12.1140502942  MEMB      68              0.0000000000
      9292        68  DOPC      H3R           -11.2819501410      -13.6934509419      -12.3632674324  MEMB      68              0.0000000000
      9293        68  DOPC      H3S           -12.8722879445      -13.1415841124      -11.7636789044  MEMB      68              0.0000000000
      9294        68  DOPC      C24           -11.1740052775      -11.9800373704      -11.0045860680  MEMB      68              0.0000000000
      9295        68  DOPC      H4R           -11.5677010200      -10.9429544686      -10.9605519081  MEMB      68              0.0000000000
      9296        68  DOPC      H4S           -10.1057526407      -11.8714946575      -11.2864472273  MEMB      68              0.0000000000
      9297        68  DOPC      C25           -11.2699210741      -12.5801599576       -9.5988426915  MEMB      68              0.0000000000
      9298        68  DOPC      H5R           -10.3588300102      -12.2789609852       -9.0353781882  MEMB      68              0.0000000000
      9299        68  DOPC      H5S           -11.2533654107      -13.6866999265       -9.6774537645  MEMB      68              0.0000000000
      9300        68  DOPC      C26           -12.4988257217      -12.0856985869       -8.8112051142  MEMB      68              0.0000000000
      9301        68  DOPC      H6R           -13.4341208210      -12.3908121137       -9.3297064011  MEMB      68              0.0000000000
      9302        68  DOPC      H6S           -12.4662797476      -10.9688236261       -8.7802205626  MEMB      68              0.0000000000
      9303        68  DOPC      C27           -12.5431721860      -12.5976092217       -7.3683900027  MEMB      68              0.0000000000
      9304        68  DOPC      H7R           -13.3809784912      -12.1178273329       -6.8132086262  MEMB      68              0.0000000000
      9305        68  DOPC      H7S           -11.5954946921      -12.2737758760       -6.8866326714  MEMB      68              0.0000000000
      9306        68  DOPC      C28           -12.5986667070      -14.1309272257       -7.2520490480  MEMB      68              0.0000000000
      9307        68  DOPC      H8R           -12.3274067343      -14.3926799957       -6.2053871468  MEMB      68              0.0000000000
      9308        68  DOPC      H8S           -11.7828025745      -14.5491740002       -7.8782297068  MEMB      68              0.0000000000
      9309        68  DOPC      C29           -13.9328892078      -14.7568771936       -7.5766990169  MEMB      68              0.0000000000
      9310        68  DOPC      H9R           -14.7594654831      -14.4322032952       -6.9241813736  MEMB      68              0.0000000000
      9311        68  DOPC      C210          -14.1903634730      -15.6561630021       -8.5478117618  MEMB      68              0.0000000000
      9312        68  DOPC      H10R          -15.2082148367      -16.0675233879       -8.6218318960  MEMB      68              0.0000000000
      9313        68  DOPC      C211          -13.2140338658      -16.2466129981       -9.5413295795  MEMB      68              0.0000000000
      9314        68  DOPC      H11R          -12.3400113015      -15.5801830392       -9.7126134505  MEMB      68              0.0000000000
      9315        68  DOPC      H11S          -13.7162644770      -16.3469740581      -10.5305135882  MEMB      68              0.0000000000
      9316        68  DOPC      C212          -12.6724092020      -17.6342962771       -9.1347233741  MEMB      68              0.0000000000
      9317        68  DOPC      H12R          -12.3390484673      -18.1734655211      -10.0516431202  MEMB      68              0.0000000000
      9318        68  DOPC      H12S          -13.4771013068      -18.2407963929       -8.6715835616  MEMB      68              0.0000000000
      9319        68  DOPC      C213          -11.4704937434      -17.5400765869       -8.1832730637  MEMB      68              0.0000000000
      9320        68  DOPC      H13R          -11.6650116863      -16.7459836452       -7.4350843567  MEMB      68              0.0000000000
      9321        68  DOPC      H13S          -10.5871795990      -17.2137461312       -8.7787147057  MEMB      68              0.0000000000
      9322        68  DOPC      C214          -11.1376289719      -18.8535501878       -7.4535479983  MEMB      68              0.0000000000
      9323        68  DOPC      H14R          -10.0808874118      -18.8166218324       -7.1054199901  MEMB      68              0.0000000000
      9324        68  DOPC      H14S          -11.2291645041      -19.6913989464       -8.1797429995  MEMB      68              0.0000000000
      9325        68  DOPC      C215          -12.0290275917      -19.1415029407       -6.2302083352  MEMB      68              0.0000000000
      9326        68  DOPC      H15R          -11.7657342998      -20.1394298107       -5.8150251204  MEMB      68              0.0000000000
      9327        68  DOPC      H15S          -13.0752523824      -19.1922641854       -6.5879091438  MEMB      68              0.0000000000
      9328        68  DOPC      C216          -11.9222593532      -18.0974211250       -5.1041011907  MEMB      68              0.0000000000
      9329        68  DOPC      H16R          -12.3107475136      -17.1228868933       -5.4754160171  MEMB      68              0.0000000000
      9330        68  DOPC      H16S          -10.8501803697      -17.9619062638       -4.8390999805  MEMB      68              0.0000000000
      9331        68  DOPC      C217          -12.6960613040      -18.4586981233       -3.8278551318  MEMB      68              0.0000000000
      9332        68  DOPC      H17R          -12.2231254407      -19.3400562125       -3.3410381132  MEMB      68              0.0000000000
      9333        68  DOPC      H17S          -13.7282076886      -18.7605144656       -4.0955053213  MEMB      68              0.0000000000
      9334        68  DOPC      C218          -12.7801807664      -17.2974883908       -2.8331621815  MEMB      68              0.0000000000
      9335        68  DOPC      H18R          -13.1783866086      -16.3872062554       -3.3327446739  MEMB      68              0.0000000000
      9336        68  DOPC      H18S          -11.7763493324      -17.0652358501       -2.4221460113  MEMB      68              0.0000000000
      9337        68  DOPC      H18T          -13.4563314671      -17.5556302730       -1.9922633583  MEMB      68              0.0000000000
      9338        68  DOPC      C33           -10.2874067366      -17.4438255539      -14.3729935005  MEMB      68              0.0000000000
      9339        68  DOPC      H3X            -9.4389196239      -18.0285730608      -14.7957182544  MEMB      68              0.0000000000
      9340        68  DOPC      H3Y           -10.9383297967      -18.1566974587      -13.8182426416  MEMB      68              0.0000000000
      9341        68  DOPC      C34            -9.7037113951      -16.4151946153      -13.3910594795  MEMB      68              0.0000000000
      9342        68  DOPC      H4X           -10.5258327764      -15.7818175097      -12.9869606892  MEMB      68              0.0000000000
      9343        68  DOPC      H4Y            -9.0050536396      -15.7463710450      -13.9384083120  MEMB      68              0.0000000000
      9344        68  DOPC      C35            -8.9679196313      -17.0790410386      -12.2173420686  MEMB      68              0.0000000000
      9345        68  DOPC      H5X            -8.3869637247      -17.9470038416      -12.6004312558  MEMB      68              0.0000000000
      9346        68  DOPC      H5Y            -9.7227436185      -17.4708225395      -11.4971063844  MEMB      68              0.0000000000
      9347        68  DOPC      C36            -7.9953592684      -16.1528732193      -11.4707933370  MEMB      68              0.0000000000
      9348        68  DOPC      H6X            -7.4553985558      -16.7775055943      -10.7245510597  MEMB      68              0.0000000000
      9349        68  DOPC      H6Y            -7.2400739544      -15.7481057693      -12.1789123405  MEMB      68              0.0000000000
      9350        68  DOPC      C37            -8.6916739483      -14.9938756295      -10.7402987408  MEMB      68              0.0000000000
      9351        68  DOPC      H7X            -9.2088207478      -14.3559009825      -11.4927961419  MEMB      68              0.0000000000
      9352        68  DOPC      H7Y            -9.4714103353      -15.4080525575      -10.0616377471  MEMB      68              0.0000000000
      9353        68  DOPC      C38            -7.7358202733      -14.0957030684       -9.9293264877  MEMB      68              0.0000000000
      9354        68  DOPC      H8X            -8.3344238962      -13.2938184903       -9.4442581108  MEMB      68              0.0000000000
      9355        68  DOPC      H8Y            -7.0597456611      -13.5800982891      -10.6481567257  MEMB      68              0.0000000000
      9356        68  DOPC      C39            -6.9174128835      -14.8644444789       -8.9188056716  MEMB      68              0.0000000000
      9357        68  DOPC      H9X            -5.9891522709      -15.2858312225       -9.3299255236  MEMB      68              0.0000000000
      9358        68  DOPC      C310           -7.1833300001      -15.0728267398       -7.6156506351  MEMB      68              0.0000000000
      9359        68  DOPC      H10X           -6.4433669749      -15.6211896415       -7.0127011998  MEMB      68              0.0000000000
      9360        68  DOPC      C311           -8.3698088461      -14.5938136493       -6.8185152265  MEMB      68              0.0000000000
      9361        68  DOPC      H11X           -9.1695060743      -14.1487781332       -7.4551948666  MEMB      68              0.0000000000
      9362        68  DOPC      H11Y           -8.0384013459      -13.7991947626       -6.1131632104  MEMB      68              0.0000000000
      9363        68  DOPC      C312           -8.9850791054      -15.7061036141       -5.9568057940  MEMB      68              0.0000000000
      9364        68  DOPC      H12X           -8.2140704309      -16.4261592187       -5.6015947451  MEMB      68              0.0000000000
      9365        68  DOPC      H12Y           -9.6998370548      -16.2745683039       -6.5875596615  MEMB      68              0.0000000000
      9366        68  DOPC      C313           -9.7084051136      -15.1423964168       -4.7281330829  MEMB      68              0.0000000000
      9367        68  DOPC      H13X          -10.0580344124      -14.1054165161       -4.9319798304  MEMB      68              0.0000000000
      9368        68  DOPC      H13Y          -10.6130946993      -15.7547444464       -4.5230834229  MEMB      68              0.0000000000
      9369        68  DOPC      C314           -8.8357831170      -15.1635467884       -3.4662511325  MEMB      68              0.0000000000
      9370        68  DOPC      H14X           -8.4769776571      -16.2019648588       -3.2852995866  MEMB      68              0.0000000000
      9371        68  DOPC      H14Y           -7.9422191838      -14.5138927677       -3.6097005332  MEMB      68              0.0000000000
      9372        68  DOPC      C315           -9.6406874402      -14.6822174362       -2.2592766565  MEMB      68              0.0000000000
      9373        68  DOPC      H15X          -10.6211501437      -15.2060625869       -2.2274269353  MEMB      68              0.0000000000
      9374        68  DOPC      H15Y           -9.8560155120      -13.6060865927       -2.4165574120  MEMB      68              0.0000000000
      9375        68  DOPC      C316           -8.9468697822      -14.8980914435       -0.9126876736  MEMB      68              0.0000000000
      9376        68  DOPC      H16X           -9.2618661546      -15.8827478690       -0.5003020348  MEMB      68              0.0000000000
      9377        68  DOPC      H16Y           -7.8406035185      -14.9140206035       -1.0373942117  MEMB      68              0.0000000000
      9378        68  DOPC      C317           -9.3073569152      -13.8127946432        0.0990282501  MEMB      68              0.0000000000
      9379        68  DOPC      H17X           -8.7378082331      -12.9048747754       -0.1885591710  MEMB      68              0.0000000000
      9380        68  DOPC      H17Y          -10.3958800472      -13.5856642864        0.0257614081  MEMB      68              0.0000000000
      9381        68  DOPC      C318           -8.9857883040      -14.2152436784        1.5352933803  MEMB      68              0.0000000000
      9382        68  DOPC      H18X           -9.5771487775      -15.1157314416        1.8070969034  MEMB      68              0.0000000000
      9383        68  DOPC      H18Y           -7.9142990109      -14.4792658811        1.6368381417  MEMB      68              0.0000000000
      9384        68  DOPC      H18Z           -9.2211345881      -13.3941770393        2.2455912954  MEMB      68              0.0000000000
      9385        69  DOPC      N               2.4850445071       20.5921910301      -21.1977267166  MEMB      69              0.0000000000
      9386        69  DOPC      C12             3.6501826425       21.0767692535      -20.3597929839  MEMB      69              0.0000000000
      9387        69  DOPC      H12A            3.7113076400       22.1497263289      -20.4557613955  MEMB      69              0.0000000000
      9388        69  DOPC      H12B            4.5761543996       20.6564816849      -20.7298994906  MEMB      69              0.0000000000
      9389        69  DOPC      C13             2.1365390018       19.2052192152      -20.7471415152  MEMB      69              0.0000000000
      9390        69  DOPC      H13A            1.2649248377       18.8381597018      -21.2782688868  MEMB      69              0.0000000000
      9391        69  DOPC      H13B            2.9643216847       18.5236700866      -20.9054407839  MEMB      69              0.0000000000
      9392        69  DOPC      H13C            1.9433415729       19.2385544364      -19.6753218366  MEMB      69              0.0000000000
      9393        69  DOPC      C14             2.7957707115       20.4685666585      -22.6426324006  MEMB      69              0.0000000000
      9394        69  DOPC      H14A            2.9955551004       21.4050885141      -23.1308232043  MEMB      69              0.0000000000
      9395        69  DOPC      H14B            3.5916069932       19.7391466038      -22.8019435436  MEMB      69              0.0000000000
      9396        69  DOPC      H14C            1.9326762012       19.9969593732      -23.1257671339  MEMB      69              0.0000000000
      9397        69  DOPC      C15             1.3035353167       21.4772919268      -20.9431064472  MEMB      69              0.0000000000
      9398        69  DOPC      H15A            1.5190501696       22.5302904615      -21.0934037915  MEMB      69              0.0000000000
      9399        69  DOPC      H15B            1.0320305172       21.3948130927      -19.8837631418  MEMB      69              0.0000000000
      9400        69  DOPC      H15C            0.4455761348       21.1806287453      -21.5277909204  MEMB      69              0.0000000000
      9401        69  DOPC      C11             3.5653170790       20.7686200027      -18.8425121175  MEMB      69              0.0000000000
      9402        69  DOPC      H11A            3.8014141533       19.6878192980      -18.6778886278  MEMB      69              0.0000000000
      9403        69  DOPC      H11B            4.3516145386       21.3610699273      -18.3164239771  MEMB      69              0.0000000000
      9404        69  DOPC      P               1.8820847895       20.6762241201      -16.8610394166  MEMB      69              0.0000000000
      9405        69  DOPC      O13             0.5006653369       21.1355753225      -16.6155656533  MEMB      69              0.0000000000
      9406        69  DOPC      O14             2.9460260120       21.1261689641      -15.9410327957  MEMB      69              0.0000000000
      9407        69  DOPC      O12             2.2738420830       21.1052012522      -18.3377466351  MEMB      69              0.0000000000
      9408        69  DOPC      O11             1.9104260639       19.0955830068      -16.9388800319  MEMB      69              0.0000000000
      9409        69  DOPC      C1              1.0005552831       18.2841526981      -17.6830150246  MEMB      69              0.0000000000
      9410        69  DOPC      HA              1.5548405720       17.7729048708      -18.4984090315  MEMB      69              0.0000000000
      9411        69  DOPC      HB              0.1772341002       18.8952200778      -18.1261154224  MEMB      69              0.0000000000
      9412        69  DOPC      C2              0.3307353877       17.1613696809      -16.8244890836  MEMB      69              0.0000000000
      9413        69  DOPC      HS             -0.6582826529       16.9177818242      -17.2791954452  MEMB      69              0.0000000000
      9414        69  DOPC      O21             0.1663543994       17.5810403982      -15.4700323002  MEMB      69              0.0000000000
      9415        69  DOPC      C21            -0.7926149889       18.4726307616      -15.2974215052  MEMB      69              0.0000000000
      9416        69  DOPC      O22            -1.6100644446       18.7962696956      -16.1406546507  MEMB      69              0.0000000000
      9417        69  DOPC      C22            -0.8688653810       18.7675299694      -13.8009915437  MEMB      69              0.0000000000
      9418        69  DOPC      H2R            -0.6247794833       17.8395310993      -13.2473352233  MEMB      69              0.0000000000
      9419        69  DOPC      H2S            -1.9298261199       19.0432641439      -13.6125877710  MEMB      69              0.0000000000
      9420        69  DOPC      C3              1.1321417352       15.8241587396      -16.8259088308  MEMB      69              0.0000000000
      9421        69  DOPC      HX              1.1455827882       15.4226675796      -17.8604200306  MEMB      69              0.0000000000
      9422        69  DOPC      HY              0.6080880185       15.0629890924      -16.2006855230  MEMB      69              0.0000000000
      9423        69  DOPC      O31             2.4923280110       16.0159636512      -16.4206913418  MEMB      69              0.0000000000
      9424        69  DOPC      C31             2.7079383874       15.9635966800      -15.1064948533  MEMB      69              0.0000000000
      9425        69  DOPC      O32             1.8991706333       15.6497847454      -14.2538776789  MEMB      69              0.0000000000
      9426        69  DOPC      C32             4.1614255487       16.2676014315      -14.8294753455  MEMB      69              0.0000000000
      9427        69  DOPC      H2X             4.4202082505       15.7534987116      -13.8847399622  MEMB      69              0.0000000000
      9428        69  DOPC      H2Y             4.7768536450       15.8441942281      -15.6519653748  MEMB      69              0.0000000000
      9429        69  DOPC      C23             0.0296700540       19.8974873977      -13.2765801028  MEMB      69              0.0000000000
      9430        69  DOPC      H3R            -0.4509127213       20.1815079148      -12.3133333412  MEMB      69              0.0000000000
      9431        69  DOPC      H3S             0.0116427664       20.7703405367      -13.9705102214  MEMB      69              0.0000000000
      9432        69  DOPC      C24             1.4828851094       19.5187801892      -12.9559015281  MEMB      69              0.0000000000
      9433        69  DOPC      H4R             1.9795864283       19.2192082244      -13.9089565932  MEMB      69              0.0000000000
      9434        69  DOPC      H4S             1.5251963031       18.6452981560      -12.2693756678  MEMB      69              0.0000000000
      9435        69  DOPC      C25             2.2692913267       20.7064403893      -12.3566110402  MEMB      69              0.0000000000
      9436        69  DOPC      H5R             2.2319082402       21.5286731681      -13.1119385039  MEMB      69              0.0000000000
      9437        69  DOPC      H5S             3.3389055588       20.4276897674      -12.2401017138  MEMB      69              0.0000000000
      9438        69  DOPC      C26             1.7323721776       21.2407526995      -11.0132223490  MEMB      69              0.0000000000
      9439        69  DOPC      H6R             0.6337884030       21.2559579457      -11.0127779491  MEMB      69              0.0000000000
      9440        69  DOPC      H6S             2.0841157758       22.2879011534      -10.8668657355  MEMB      69              0.0000000000
      9441        69  DOPC      C27             2.1618684026       20.4120520588       -9.8040587485  MEMB      69              0.0000000000
      9442        69  DOPC      H7R             3.2618948312       20.5283627274       -9.7581073341  MEMB      69              0.0000000000
      9443        69  DOPC      H7S             1.9380812703       19.3359179498       -9.9779350048  MEMB      69              0.0000000000
      9444        69  DOPC      C28             1.5655685705       20.8551109795       -8.4490459268  MEMB      69              0.0000000000
      9445        69  DOPC      H8R             2.0135101313       21.8368178700       -8.1799403676  MEMB      69              0.0000000000
      9446        69  DOPC      H8S             1.9342429999       20.1446378538       -7.6734939751  MEMB      69              0.0000000000
      9447        69  DOPC      C29             0.0564148202       20.9734012593       -8.4337299498  MEMB      69              0.0000000000
      9448        69  DOPC      H9R            -0.3359160216       21.8275340118       -9.0059328023  MEMB      69              0.0000000000
      9449        69  DOPC      C210           -0.8156063432       20.1986550602       -7.7633740161  MEMB      69              0.0000000000
      9450        69  DOPC      H10R           -1.8929758336       20.4127975637       -7.8327445917  MEMB      69              0.0000000000
      9451        69  DOPC      C211           -0.4422536318       19.0380504987       -6.8850385097  MEMB      69              0.0000000000
      9452        69  DOPC      H11R            0.5389391761       18.6383438595       -7.2131089266  MEMB      69              0.0000000000
      9453        69  DOPC      H11S           -1.1759405651       18.2129292073       -7.0192064417  MEMB      69              0.0000000000
      9454        69  DOPC      C212           -0.3810847780       19.3998898120       -5.3825732369  MEMB      69              0.0000000000
      9455        69  DOPC      H12R           -1.4215965208       19.4286076535       -4.9882121946  MEMB      69              0.0000000000
      9456        69  DOPC      H12S            0.0552981083       20.4145190845       -5.2540399615  MEMB      69              0.0000000000
      9457        69  DOPC      C213            0.4555528345       18.4383644745       -4.5177094221  MEMB      69              0.0000000000
      9458        69  DOPC      H13R           -0.0494442165       18.2950353186       -3.5350958105  MEMB      69              0.0000000000
      9459        69  DOPC      H13S            1.4595578924       18.8753655337       -4.3184394961  MEMB      69              0.0000000000
      9460        69  DOPC      C214            0.6518899302       17.0845714335       -5.1874187518  MEMB      69              0.0000000000
      9461        69  DOPC      H14R            1.3688518510       17.1683441562       -6.0345802306  MEMB      69              0.0000000000
      9462        69  DOPC      H14S           -0.3291496387       16.7578664380       -5.6020699364  MEMB      69              0.0000000000
      9463        69  DOPC      C215            1.1448040973       15.9820369235       -4.2684532214  MEMB      69              0.0000000000
      9464        69  DOPC      H15R            0.4623755327       15.9033788717       -3.3928308758  MEMB      69              0.0000000000
      9465        69  DOPC      H15S            2.1774498187       16.1709671112       -3.9039671267  MEMB      69              0.0000000000
      9466        69  DOPC      C216            1.0806812374       14.6969908780       -5.0726649801  MEMB      69              0.0000000000
      9467        69  DOPC      H16R            1.7882083445       14.7246450317       -5.9308040505  MEMB      69              0.0000000000
      9468        69  DOPC      H16S            0.0546735607       14.6342079663       -5.4946883260  MEMB      69              0.0000000000
      9469        69  DOPC      C217            1.2826269367       13.4393244563       -4.2568372210  MEMB      69              0.0000000000
      9470        69  DOPC      H17R            1.0212268849       12.6652472849       -4.9663545323  MEMB      69              0.0000000000
      9471        69  DOPC      H17S            0.5481103654       13.3273671737       -3.4371768485  MEMB      69              0.0000000000
      9472        69  DOPC      C218            2.7065801429       13.1169025408       -3.8595977470  MEMB      69              0.0000000000
      9473        69  DOPC      H18R            2.7731930734       12.8391747015       -2.7865375489  MEMB      69              0.0000000000
      9474        69  DOPC      H18S            3.3750675500       13.9790216947       -4.0674400881  MEMB      69              0.0000000000
      9475        69  DOPC      H18T            3.0620742379       12.2487696365       -4.4621062717  MEMB      69              0.0000000000
      9476        69  DOPC      C33             4.4434855570       17.7694358076      -14.6754468326  MEMB      69              0.0000000000
      9477        69  DOPC      H3X             4.0002258264       18.1379231559      -13.7263369820  MEMB      69              0.0000000000
      9478        69  DOPC      H3Y             3.9885047168       18.3560492401      -15.5083584490  MEMB      69              0.0000000000
      9479        69  DOPC      C34             5.9539403418       17.9998490434      -14.6953788737  MEMB      69              0.0000000000
      9480        69  DOPC      H4X             6.2982094193       17.7983379816      -15.7315375468  MEMB      69              0.0000000000
      9481        69  DOPC      H4Y             6.4442479906       17.2532014583      -14.0351398949  MEMB      69              0.0000000000
      9482        69  DOPC      C35             6.3729053626       19.4198004952      -14.3198451411  MEMB      69              0.0000000000
      9483        69  DOPC      H5X             5.7209928589       20.1259409736      -14.8845347374  MEMB      69              0.0000000000
      9484        69  DOPC      H5Y             7.4295732159       19.5982944132      -14.6248773415  MEMB      69              0.0000000000
      9485        69  DOPC      C36             6.2298400464       19.6739622904      -12.8226613795  MEMB      69              0.0000000000
      9486        69  DOPC      H6X             6.2582484714       20.7677407724      -12.6263513448  MEMB      69              0.0000000000
      9487        69  DOPC      H6Y             5.2389872553       19.2947064724      -12.4924637385  MEMB      69              0.0000000000
      9488        69  DOPC      C37             7.3064778869       18.9702501606      -11.9957310032  MEMB      69              0.0000000000
      9489        69  DOPC      H7X             7.5608824401       17.9830160364      -12.4403707914  MEMB      69              0.0000000000
      9490        69  DOPC      H7Y             8.2404581942       19.5686891915      -12.0400506956  MEMB      69              0.0000000000
      9491        69  DOPC      C38             6.8275749480       18.7247338037      -10.5643700993  MEMB      69              0.0000000000
      9492        69  DOPC      H8X             7.5983117632       18.1961298520       -9.9658663264  MEMB      69              0.0000000000
      9493        69  DOPC      H8Y             5.9400358667       18.0497267163      -10.6136885633  MEMB      69              0.0000000000
      9494        69  DOPC      C39             6.4872345629       20.0568877575       -9.9581062581  MEMB      69              0.0000000000
      9495        69  DOPC      H9X             6.9933049128       20.9351018757      -10.3898500777  MEMB      69              0.0000000000
      9496        69  DOPC      C310            5.6507885218       20.2119966633       -8.9374639184  MEMB      69              0.0000000000
      9497        69  DOPC      H10X            5.4537251709       21.2241204399       -8.5480793937  MEMB      69              0.0000000000
      9498        69  DOPC      C311            4.9451126950       19.0698921467       -8.2559045307  MEMB      69              0.0000000000
      9499        69  DOPC      H11X            5.4603363877       18.0933022077       -8.3979225839  MEMB      69              0.0000000000
      9500        69  DOPC      H11Y            3.9096817452       18.9340862481       -8.6311885830  MEMB      69              0.0000000000
      9501        69  DOPC      C312            4.8863321353       19.3835557026       -6.7676941052  MEMB      69              0.0000000000
      9502        69  DOPC      H12X            4.2069701158       18.6468274952       -6.2833142719  MEMB      69              0.0000000000
      9503        69  DOPC      H12Y            4.4369192393       20.3922832222       -6.6046034596  MEMB      69              0.0000000000
      9504        69  DOPC      C313            6.2656236025       19.3186959999       -6.1004798239  MEMB      69              0.0000000000
      9505        69  DOPC      H13X            6.5711950299       18.2530784949       -6.0082093527  MEMB      69              0.0000000000
      9506        69  DOPC      H13Y            7.0337556227       19.8212945967       -6.7307708187  MEMB      69              0.0000000000
      9507        69  DOPC      C314            6.2438172003       19.9868768844       -4.7265872738  MEMB      69              0.0000000000
      9508        69  DOPC      H14X            7.2364288383       19.8788456525       -4.2383130767  MEMB      69              0.0000000000
      9509        69  DOPC      H14Y            6.0492652313       21.0726297836       -4.8691948117  MEMB      69              0.0000000000
      9510        69  DOPC      C315            5.1222944454       19.4427624830       -3.8347631821  MEMB      69              0.0000000000
      9511        69  DOPC      H15X            5.1544631889       18.3305890142       -3.8333561068  MEMB      69              0.0000000000
      9512        69  DOPC      H15Y            4.1486365548       19.7515723387       -4.2788397611  MEMB      69              0.0000000000
      9513        69  DOPC      C316            5.1953322506       19.9672196720       -2.3991744634  MEMB      69              0.0000000000
      9514        69  DOPC      H16X            5.8153835934       19.2645163998       -1.7989393361  MEMB      69              0.0000000000
      9515        69  DOPC      H16Y            5.7013781646       20.9573049122       -2.3802888859  MEMB      69              0.0000000000
      9516        69  DOPC      C317            3.8244050281       20.1376387596       -1.7380736435  MEMB      69              0.0000000000
      9517        69  DOPC      H17X            3.1990335405       19.2301102454       -1.8946835849  MEMB      69              0.0000000000
      9518        69  DOPC      H17Y            4.0250411722       20.2272644396       -0.6503785125  MEMB      69              0.0000000000
      9519        69  DOPC      C318            3.0616108668       21.3901721647       -2.1765800241  MEMB      69              0.0000000000
      9520        69  DOPC      H18X            2.1406518159       21.5106463468       -1.5684220362  MEMB      69              0.0000000000
      9521        69  DOPC      H18Y            3.6886452683       22.2965884039       -2.0338406144  MEMB      69              0.0000000000
      9522        69  DOPC      H18Z            2.7688968478       21.3337414037       -3.2467493023  MEMB      69              0.0000000000
      9523        70  DOPC      N             -12.6321443416       15.7837382916      -20.2548252787  MEMB      70              0.0000000000
      9524        70  DOPC      C12           -13.5116506151       16.8401102119      -19.5665881015  MEMB      70              0.0000000000
      9525        70  DOPC      H12A          -14.5080487365       16.7716371965      -20.0087431612  MEMB      70              0.0000000000
      9526        70  DOPC      H12B          -13.1594607182       17.8270145917      -19.8506348701  MEMB      70              0.0000000000
      9527        70  DOPC      C13           -13.2706891355       14.4445523328      -20.1039972392  MEMB      70              0.0000000000
      9528        70  DOPC      H13A          -14.3326473318       14.4801305326      -20.3349764483  MEMB      70              0.0000000000
      9529        70  DOPC      H13B          -12.7884557611       13.6690705773      -20.6775672345  MEMB      70              0.0000000000
      9530        70  DOPC      H13C          -13.2706079209       14.1616124147      -19.0441405787  MEMB      70              0.0000000000
      9531        70  DOPC      C14           -11.2816480955       15.7369986627      -19.6270161757  MEMB      70              0.0000000000
      9532        70  DOPC      H14A          -10.6586139217       14.9911476675      -20.0993183197  MEMB      70              0.0000000000
      9533        70  DOPC      H14B          -10.7811969980       16.6984967671      -19.7136980443  MEMB      70              0.0000000000
      9534        70  DOPC      H14C          -11.4098593229       15.5102945423      -18.5741122009  MEMB      70              0.0000000000
      9535        70  DOPC      C15           -12.4829586737       16.1649899545      -21.7022669217  MEMB      70              0.0000000000
      9536        70  DOPC      H15A          -12.0347570643       15.3932764385      -22.3074576240  MEMB      70              0.0000000000
      9537        70  DOPC      H15B          -11.8683636413       17.0610517470      -21.7993672330  MEMB      70              0.0000000000
      9538        70  DOPC      H15C          -13.4539381533       16.4056229136      -22.1310342134  MEMB      70              0.0000000000
      9539        70  DOPC      C11           -13.6910459350       16.8481434566      -18.0224051186  MEMB      70              0.0000000000
      9540        70  DOPC      H11A          -12.7133675932       17.1056625840      -17.5564557980  MEMB      70              0.0000000000
      9541        70  DOPC      H11B          -14.3977291623       17.6635852599      -17.7330900347  MEMB      70              0.0000000000
      9542        70  DOPC      P             -15.5776065752       15.0036579849      -17.6386558767  MEMB      70              0.0000000000
      9543        70  DOPC      O13           -15.4358483893       13.5726396966      -17.9829662217  MEMB      70              0.0000000000
      9544        70  DOPC      O14           -16.3574657994       15.8060542938      -18.6142483602  MEMB      70              0.0000000000
      9545        70  DOPC      O12           -14.1147719303       15.6016072860      -17.5046776554  MEMB      70              0.0000000000
      9546        70  DOPC      O11           -16.1678444070       15.1433481931      -16.1901126838  MEMB      70              0.0000000000
      9547        70  DOPC      C1            -16.7834207748       16.3443205604      -15.7521326029  MEMB      70              0.0000000000
      9548        70  DOPC      HA            -17.8489592017       16.3285196540      -16.0669732457  MEMB      70              0.0000000000
      9549        70  DOPC      HB            -16.3013693770       17.2524690560      -16.1899720010  MEMB      70              0.0000000000
      9550        70  DOPC      C2            -16.7017102744       16.4020861602      -14.2052690296  MEMB      70              0.0000000000
      9551        70  DOPC      HS            -17.2008304932       17.3287858368      -13.8425104835  MEMB      70              0.0000000000
      9552        70  DOPC      O21           -15.3246688932       16.3552029534      -13.7880241655  MEMB      70              0.0000000000
      9553        70  DOPC      C21           -14.6835814128       17.4687831598      -14.0574183336  MEMB      70              0.0000000000
      9554        70  DOPC      O22           -15.1950910247       18.5698963689      -14.1629516491  MEMB      70              0.0000000000
      9555        70  DOPC      C22           -13.2109892163       17.1843510161      -14.2997761429  MEMB      70              0.0000000000
      9556        70  DOPC      H2R           -12.9672822340       17.6878802925      -15.2603381137  MEMB      70              0.0000000000
      9557        70  DOPC      H2S           -13.0641506013       16.0941186962      -14.4443717206  MEMB      70              0.0000000000
      9558        70  DOPC      C3            -17.4485487231       15.1997592732      -13.5789516969  MEMB      70              0.0000000000
      9559        70  DOPC      HX            -17.0038699759       14.2617782268      -13.9914972100  MEMB      70              0.0000000000
      9560        70  DOPC      HY            -18.5022926964       15.2265054086      -13.9308260284  MEMB      70              0.0000000000
      9561        70  DOPC      O31           -17.4209685956       15.2830353373      -12.1339071316  MEMB      70              0.0000000000
      9562        70  DOPC      C31           -16.4134494827       14.6163914560      -11.5684010332  MEMB      70              0.0000000000
      9563        70  DOPC      O32           -15.6696776589       13.8449509642      -12.1358964346  MEMB      70              0.0000000000
      9564        70  DOPC      C32           -16.3056071104       14.9573910310      -10.0739056198  MEMB      70              0.0000000000
      9565        70  DOPC      H2X           -15.7157501546       15.8934097260       -9.9950541895  MEMB      70              0.0000000000
      9566        70  DOPC      H2Y           -17.3193617791       15.1372359004       -9.6686637038  MEMB      70              0.0000000000
      9567        70  DOPC      C23           -12.3099986521       17.7516028134      -13.1791076697  MEMB      70              0.0000000000
      9568        70  DOPC      H3R           -12.7118710949       18.7033744343      -12.7676573776  MEMB      70              0.0000000000
      9569        70  DOPC      H3S           -11.3277848591       17.9951760755      -13.6457481724  MEMB      70              0.0000000000
      9570        70  DOPC      C24           -12.0595812059       16.7292580381      -12.0639415603  MEMB      70              0.0000000000
      9571        70  DOPC      H4R           -11.0376306903       16.8700810651      -11.6478895896  MEMB      70              0.0000000000
      9572        70  DOPC      H4S           -12.0999211179       15.7061099791      -12.5051713595  MEMB      70              0.0000000000
      9573        70  DOPC      C25           -13.0616938551       16.8058946680      -10.9059162644  MEMB      70              0.0000000000
      9574        70  DOPC      H5R           -12.9756229543       15.8541088634      -10.3314379832  MEMB      70              0.0000000000
      9575        70  DOPC      H5S           -14.1008393834       16.8597733862      -11.2944835840  MEMB      70              0.0000000000
      9576        70  DOPC      C26           -12.7939556355       17.9696511694       -9.9388139598  MEMB      70              0.0000000000
      9577        70  DOPC      H6R           -13.3191678787       18.8822174113      -10.2976857326  MEMB      70              0.0000000000
      9578        70  DOPC      H6S           -11.7038201230       18.1920159181       -9.9163917587  MEMB      70              0.0000000000
      9579        70  DOPC      C27           -13.2396178887       17.6199249964       -8.5136212633  MEMB      70              0.0000000000
      9580        70  DOPC      H7R           -12.6930627520       16.7021938620       -8.1933537422  MEMB      70              0.0000000000
      9581        70  DOPC      H7S           -14.3253602826       17.3705903825       -8.5359766541  MEMB      70              0.0000000000
      9582        70  DOPC      C28           -12.9825608222       18.7415788864       -7.4914961989  MEMB      70              0.0000000000
      9583        70  DOPC      H8R           -13.5322320427       19.6533643721       -7.8190474304  MEMB      70              0.0000000000
      9584        70  DOPC      H8S           -11.9011893609       19.0037935305       -7.4912075795  MEMB      70              0.0000000000
      9585        70  DOPC      C29           -13.4210069003       18.2858037020       -6.1192056150  MEMB      70              0.0000000000
      9586        70  DOPC      H9R           -12.6269598435       17.8455221962       -5.4972263260  MEMB      70              0.0000000000
      9587        70  DOPC      C210          -14.6744047219       18.3569793647       -5.6298446258  MEMB      70              0.0000000000
      9588        70  DOPC      H10R          -14.8754707904       17.9739403657       -4.6175351022  MEMB      70              0.0000000000
      9589        70  DOPC      C211          -15.8778934596       18.9074526316       -6.3593896890  MEMB      70              0.0000000000
      9590        70  DOPC      H11R          -15.5982898943       19.1538328589       -7.4066201809  MEMB      70              0.0000000000
      9591        70  DOPC      H11S          -16.1767256997       19.8617227525       -5.8811978275  MEMB      70              0.0000000000
      9592        70  DOPC      C212          -17.1208872264       17.9855782739       -6.4760117584  MEMB      70              0.0000000000
      9593        70  DOPC      H12R          -16.7864560505       16.9489338656       -6.6792416278  MEMB      70              0.0000000000
      9594        70  DOPC      H12S          -17.6801022820       18.2996007653       -7.3894210111  MEMB      70              0.0000000000
      9595        70  DOPC      C213          -18.1440277166       18.0249850699       -5.3124531984  MEMB      70              0.0000000000
      9596        70  DOPC      H13R          -18.7903703090       17.1208790941       -5.3598963389  MEMB      70              0.0000000000
      9597        70  DOPC      H13S          -18.8263914012       18.8822721548       -5.4874694864  MEMB      70              0.0000000000
      9598        70  DOPC      C214          -17.5734528200       18.1933196974       -3.8936051129  MEMB      70              0.0000000000
      9599        70  DOPC      H14R          -16.7307325470       18.9174471996       -3.9108221314  MEMB      70              0.0000000000
      9600        70  DOPC      H14S          -17.1840662648       17.2245765175       -3.5182596131  MEMB      70              0.0000000000
      9601        70  DOPC      C215          -18.5928831256       18.7677004344       -2.8980995640  MEMB      70              0.0000000000
      9602        70  DOPC      H15R          -19.4198088027       18.0468398748       -2.7288122502  MEMB      70              0.0000000000
      9603        70  DOPC      H15S          -19.0545842579       19.6613441672       -3.3632234887  MEMB      70              0.0000000000
      9604        70  DOPC      C216          -17.9603164853       19.1606494026       -1.5514234147  MEMB      70              0.0000000000
      9605        70  DOPC      H16R          -18.7567439477       19.6047171408       -0.9119504868  MEMB      70              0.0000000000
      9606        70  DOPC      H16S          -17.1843563133       19.9447450662       -1.7070231837  MEMB      70              0.0000000000
      9607        70  DOPC      C217          -17.3178293005       17.9706990226       -0.8226279218  MEMB      70              0.0000000000
      9608        70  DOPC      H17R          -16.2459874856       17.9018224794       -1.1144615973  MEMB      70              0.0000000000
      9609        70  DOPC      H17S          -17.8032228726       17.0354096081       -1.1822247584  MEMB      70              0.0000000000
      9610        70  DOPC      C218          -17.4361550125       18.0364868288        0.7013955880  MEMB      70              0.0000000000
      9611        70  DOPC      H18R          -17.9089891095       18.9861584642        1.0139260206  MEMB      70              0.0000000000
      9612        70  DOPC      H18S          -16.4426056839       17.9424320490        1.1881291309  MEMB      70              0.0000000000
      9613        70  DOPC      H18T          -18.0812437556       17.2254805274        1.0905651675  MEMB      70              0.0000000000
      9614        70  DOPC      C33           -15.5841899676       13.8225746208       -9.2957050838  MEMB      70              0.0000000000
      9615        70  DOPC      H3X           -14.5506609086       13.7137711511       -9.7022995797  MEMB      70              0.0000000000
      9616        70  DOPC      H3Y           -16.1108528170       12.8624854752       -9.4956318227  MEMB      70              0.0000000000
      9617        70  DOPC      C34           -15.4828850241       14.0122162113       -7.7642102687  MEMB      70              0.0000000000
      9618        70  DOPC      H4X           -14.9586648158       14.9616829720       -7.5245976701  MEMB      70              0.0000000000
      9619        70  DOPC      H4Y           -14.8608973971       13.1738357866       -7.3708681007  MEMB      70              0.0000000000
      9620        70  DOPC      C35           -16.8405621008       13.9703318966       -7.0450053672  MEMB      70              0.0000000000
      9621        70  DOPC      H5X           -17.3838973902       13.0824340246       -7.4567165705  MEMB      70              0.0000000000
      9622        70  DOPC      H5Y           -17.4416280506       14.8633014390       -7.3099753230  MEMB      70              0.0000000000
      9623        70  DOPC      C36           -16.8015600623       13.7688790962       -5.5072379880  MEMB      70              0.0000000000
      9624        70  DOPC      H6X           -17.8683113043       13.6371061596       -5.2050749958  MEMB      70              0.0000000000
      9625        70  DOPC      H6Y           -16.2988028871       12.8055990698       -5.3215247661  MEMB      70              0.0000000000
      9626        70  DOPC      C37           -16.2047289834       14.8613115617       -4.5700972882  MEMB      70              0.0000000000
      9627        70  DOPC      H7X           -16.2795841645       15.8522752142       -5.0478465349  MEMB      70              0.0000000000
      9628        70  DOPC      H7Y           -16.8490698138       14.8853283570       -3.6590159569  MEMB      70              0.0000000000
      9629        70  DOPC      C38           -14.7478757502       14.6268222940       -4.0735871987  MEMB      70              0.0000000000
      9630        70  DOPC      H8X           -14.1093734252       14.6582147736       -4.9858858581  MEMB      70              0.0000000000
      9631        70  DOPC      H8Y           -14.6837764736       13.5919835524       -3.7115342908  MEMB      70              0.0000000000
      9632        70  DOPC      C39           -14.1254006050       15.5519420342       -3.0351198564  MEMB      70              0.0000000000
      9633        70  DOPC      H9X           -13.4855918907       16.3096470144       -3.5083500956  MEMB      70              0.0000000000
      9634        70  DOPC      C310          -14.1547869632       15.5885236101       -1.6760518636  MEMB      70              0.0000000000
      9635        70  DOPC      H10X          -13.5298838643       16.3536778665       -1.1903542421  MEMB      70              0.0000000000
      9636        70  DOPC      C311          -14.8288176824       14.7171994367       -0.6404645258  MEMB      70              0.0000000000
      9637        70  DOPC      H11X          -15.9105735192       14.9376407348       -0.6634256187  MEMB      70              0.0000000000
      9638        70  DOPC      H11Y          -14.4705063221       14.9965175688        0.3788454851  MEMB      70              0.0000000000
      9639        70  DOPC      C312          -14.5983666363       13.2059342035       -0.7790324117  MEMB      70              0.0000000000
      9640        70  DOPC      H12X          -13.5169135649       13.0064017125       -0.9189549228  MEMB      70              0.0000000000
      9641        70  DOPC      H12Y          -15.1176608078       12.9035685212       -1.7118028890  MEMB      70              0.0000000000
      9642        70  DOPC      C313          -15.1036461077       12.3237407054        0.3896264758  MEMB      70              0.0000000000
      9643        70  DOPC      H13X          -14.2466876553       11.7493554496        0.8146595892  MEMB      70              0.0000000000
      9644        70  DOPC      H13Y          -15.5086316636       12.9495441973        1.1912917266  MEMB      70              0.0000000000
      9645        70  DOPC      C314          -16.1593326261       11.3480007493       -0.1345119477  MEMB      70              0.0000000000
      9646        70  DOPC      H14X          -16.7189347538       11.8564980781       -0.9528888858  MEMB      70              0.0000000000
      9647        70  DOPC      H14Y          -15.5568962111       10.5165266707       -0.5380619501  MEMB      70              0.0000000000
      9648        70  DOPC      C315          -17.1890853613       10.6229699275        0.7476002897  MEMB      70              0.0000000000
      9649        70  DOPC      H15X          -17.0782108838       10.9789286918        1.7728259438  MEMB      70              0.0000000000
      9650        70  DOPC      H15Y          -16.9549993810        9.5331584903        0.7471606556  MEMB      70              0.0000000000
      9651        70  DOPC      C316          -18.6552637521       10.7737095037        0.2895724109  MEMB      70              0.0000000000
      9652        70  DOPC      H16X          -18.9275147426       11.8492427740        0.2870978374  MEMB      70              0.0000000000
      9653        70  DOPC      H16Y          -18.8595264741       10.4535929755       -0.7462255493  MEMB      70              0.0000000000
      9654        70  DOPC      C317          -19.6295915302        9.9624270350        1.1411267947  MEMB      70              0.0000000000
      9655        70  DOPC      H17X          -19.9445862989        9.0514818102        0.5772376314  MEMB      70              0.0000000000
      9656        70  DOPC      H17Y          -19.1141514498        9.6051487014        2.0598339505  MEMB      70              0.0000000000
      9657        70  DOPC      C318          -20.8338790973       10.8274534662        1.4950553898  MEMB      70              0.0000000000
      9658        70  DOPC      H18X          -21.6764137898       10.2296664822        1.8973002798  MEMB      70              0.0000000000
      9659        70  DOPC      H18Y          -20.5350920868       11.6029675905        2.2354260483  MEMB      70              0.0000000000
      9660        70  DOPC      H18Z          -21.1770909412       11.3498130807        0.5768568149  MEMB      70              0.0000000000
      9661        71  DOPC      N             -19.1967651710        8.6234783612      -20.9077178489  MEMB      71              0.0000000000
      9662        71  DOPC      C12           -19.4771113358        7.3272357556      -20.1623456761  MEMB      71              0.0000000000
      9663        71  DOPC      H12A          -18.6712981846        7.1539094934      -19.4503903575  MEMB      71              0.0000000000
      9664        71  DOPC      H12B          -19.4538327167        6.5060370125      -20.8664558212  MEMB      71              0.0000000000
      9665        71  DOPC      C13           -18.6538888377        9.5939157161      -19.9099711020  MEMB      71              0.0000000000
      9666        71  DOPC      H13A          -18.6414139912       10.5969403019      -20.3009655282  MEMB      71              0.0000000000
      9667        71  DOPC      H13B          -19.2836080901        9.5678053065      -19.0151500312  MEMB      71              0.0000000000
      9668        71  DOPC      H13C          -17.6615213568        9.3108382549      -19.5665766438  MEMB      71              0.0000000000
      9669        71  DOPC      C14           -20.4824645976        9.1025476847      -21.5199672402  MEMB      71              0.0000000000
      9670        71  DOPC      H14A          -21.2630368498        9.1064233207      -20.7583105776  MEMB      71              0.0000000000
      9671        71  DOPC      H14B          -20.3543790361       10.0885497997      -21.9454970163  MEMB      71              0.0000000000
      9672        71  DOPC      H14C          -20.8251355654        8.4489155026      -22.3224119827  MEMB      71              0.0000000000
      9673        71  DOPC      C15           -18.2228191779        8.4366203607      -22.0154264426  MEMB      71              0.0000000000
      9674        71  DOPC      H15A          -18.5667585713        7.6366824928      -22.6755183171  MEMB      71              0.0000000000
      9675        71  DOPC      H15B          -17.2522670335        8.1418883404      -21.6399336484  MEMB      71              0.0000000000
      9676        71  DOPC      H15C          -18.1723849105        9.3530028396      -22.5915158594  MEMB      71              0.0000000000
      9677        71  DOPC      C11           -20.8240918068        7.2610755697      -19.3917060988  MEMB      71              0.0000000000
      9678        71  DOPC      H11A          -21.6820442927        7.3134628629      -20.0974690388  MEMB      71              0.0000000000
      9679        71  DOPC      H11B          -20.9053448058        6.2590789618      -18.9063160444  MEMB      71              0.0000000000
      9680        71  DOPC      P             -20.4532915748        8.1905053253      -16.9876676159  MEMB      71              0.0000000000
      9681        71  DOPC      O13           -21.1024533034        9.2677090443      -16.2016070111  MEMB      71              0.0000000000
      9682        71  DOPC      O14           -18.9760363476        8.0959656211      -17.0525650323  MEMB      71              0.0000000000
      9683        71  DOPC      O12           -20.9534348858        8.3442315009      -18.4687462871  MEMB      71              0.0000000000
      9684        71  DOPC      O11           -21.0921180552        6.7792270994      -16.6433100798  MEMB      71              0.0000000000
      9685        71  DOPC      C1            -20.4106947582        5.7177601316      -15.9838170322  MEMB      71              0.0000000000
      9686        71  DOPC      HA            -19.3012919693        5.8333973746      -15.9956065114  MEMB      71              0.0000000000
      9687        71  DOPC      HB            -20.6511829965        4.7686769031      -16.5055050599  MEMB      71              0.0000000000
      9688        71  DOPC      C2            -20.9220730877        5.6209312089      -14.5323954534  MEMB      71              0.0000000000
      9689        71  DOPC      HS            -22.0117367893        5.8562491442      -14.5573642088  MEMB      71              0.0000000000
      9690        71  DOPC      O21           -20.1778422239        6.6102325944      -13.7940955806  MEMB      71              0.0000000000
      9691        71  DOPC      C21           -20.8639275698        7.1148414481      -12.7905241359  MEMB      71              0.0000000000
      9692        71  DOPC      O22           -21.8605763033        6.6190142674      -12.2892759853  MEMB      71              0.0000000000
      9693        71  DOPC      C22           -20.3168216043        8.4925125167      -12.4358767989  MEMB      71              0.0000000000
      9694        71  DOPC      H2R           -21.1268887846        9.0107215204      -11.8837816596  MEMB      71              0.0000000000
      9695        71  DOPC      H2S           -20.1557227018        9.0244488649      -13.3999183808  MEMB      71              0.0000000000
      9696        71  DOPC      C3            -20.7667779033        4.1844354908      -13.9333261089  MEMB      71              0.0000000000
      9697        71  DOPC      HX            -21.2728867300        3.4885775962      -14.6392517752  MEMB      71              0.0000000000
      9698        71  DOPC      HY            -21.3081881982        4.0808257528      -12.9627768518  MEMB      71              0.0000000000
      9699        71  DOPC      O31           -19.3836022823        3.8007579450      -13.8469885549  MEMB      71              0.0000000000
      9700        71  DOPC      C31           -18.7648926173        4.3809965960      -12.8188930447  MEMB      71              0.0000000000
      9701        71  DOPC      O32           -19.3011658885        4.8922387628      -11.8549574770  MEMB      71              0.0000000000
      9702        71  DOPC      C32           -17.2756663770        4.4361508979      -13.1323483364  MEMB      71              0.0000000000
      9703        71  DOPC      H2X           -17.1096400020        4.1508637588      -14.1901662736  MEMB      71              0.0000000000
      9704        71  DOPC      H2Y           -16.9563191025        5.4924389996      -12.9861656298  MEMB      71              0.0000000000
      9705        71  DOPC      C23           -19.0208944399        8.5285581912      -11.5914752099  MEMB      71              0.0000000000
      9706        71  DOPC      H3R           -18.2157672972        7.9455700737      -12.0945592501  MEMB      71              0.0000000000
      9707        71  DOPC      H3S           -19.2023949803        8.0696671154      -10.5947597019  MEMB      71              0.0000000000
      9708        71  DOPC      C24           -18.5644064503        9.9906623640      -11.4409717848  MEMB      71              0.0000000000
      9709        71  DOPC      H4R           -19.3868289645       10.5805488128      -10.9814729545  MEMB      71              0.0000000000
      9710        71  DOPC      H4S           -18.4038658046       10.3863226386      -12.4727493999  MEMB      71              0.0000000000
      9711        71  DOPC      C25           -17.2626394258       10.1976889671      -10.6512969382  MEMB      71              0.0000000000
      9712        71  DOPC      H5R           -16.9263702919       11.2490659374      -10.8051218141  MEMB      71              0.0000000000
      9713        71  DOPC      H5S           -16.4695735491        9.5452217257      -11.0796112594  MEMB      71              0.0000000000
      9714        71  DOPC      C26           -17.4242211624        9.9408723297       -9.1432179484  MEMB      71              0.0000000000
      9715        71  DOPC      H6R           -17.8827508766        8.9367283519       -9.0078049819  MEMB      71              0.0000000000
      9716        71  DOPC      H6S           -18.1238254631       10.6893525922       -8.7148561565  MEMB      71              0.0000000000
      9717        71  DOPC      C27           -16.0902047247        9.9785379735       -8.3766778312  MEMB      71              0.0000000000
      9718        71  DOPC      H7R           -15.5807261256       10.9562770791       -8.5138733112  MEMB      71              0.0000000000
      9719        71  DOPC      H7S           -15.4345624734        9.2321869228       -8.8689010593  MEMB      71              0.0000000000
      9720        71  DOPC      C28           -16.2062731240        9.6685146488       -6.8611570431  MEMB      71              0.0000000000
      9721        71  DOPC      H8R           -17.1613255149        9.1453232538       -6.6504224567  MEMB      71              0.0000000000
      9722        71  DOPC      H8S           -16.3003426723       10.6669822258       -6.3788565129  MEMB      71              0.0000000000
      9723        71  DOPC      C29           -14.9863244349        8.8743273458       -6.4006906430  MEMB      71              0.0000000000
      9724        71  DOPC      H9R           -14.1285629531        9.1802008888       -7.0146852068  MEMB      71              0.0000000000
      9725        71  DOPC      C210          -14.6422838406        8.0324277468       -5.3804218663  MEMB      71              0.0000000000
      9726        71  DOPC      H10R          -13.6464385604        7.6030999234       -5.4870447180  MEMB      71              0.0000000000
      9727        71  DOPC      C211          -15.3242851990        7.4616872202       -4.1485533450  MEMB      71              0.0000000000
      9728        71  DOPC      H11R          -16.3962576964        7.6291439129       -4.2572455668  MEMB      71              0.0000000000
      9729        71  DOPC      H11S          -14.9109294608        8.0900009282       -3.3354842063  MEMB      71              0.0000000000
      9730        71  DOPC      C212          -15.2645158292        6.0520825641       -3.4655578834  MEMB      71              0.0000000000
      9731        71  DOPC      H12R          -14.6253009366        5.4692415494       -4.1051248307  MEMB      71              0.0000000000
      9732        71  DOPC      H12S          -16.2450152907        5.5489127288       -3.5248157609  MEMB      71              0.0000000000
      9733        71  DOPC      C213          -14.8370611353        6.0648576963       -1.9650335631  MEMB      71              0.0000000000
      9734        71  DOPC      H13R          -15.1261403652        7.0361676101       -1.5141248587  MEMB      71              0.0000000000
      9735        71  DOPC      H13S          -13.7312710452        6.0148706477       -1.9283874603  MEMB      71              0.0000000000
      9736        71  DOPC      C214          -15.3958218086        4.9764755991       -1.0051072803  MEMB      71              0.0000000000
      9737        71  DOPC      H14R          -14.6229414866        4.7814600057       -0.2247493097  MEMB      71              0.0000000000
      9738        71  DOPC      H14S          -15.5306656580        4.0257103972       -1.5555747531  MEMB      71              0.0000000000
      9739        71  DOPC      C215          -16.6775971519        5.3898596763       -0.2340929548  MEMB      71              0.0000000000
      9740        71  DOPC      H15R          -17.4730985833        5.6212023673       -0.9748254567  MEMB      71              0.0000000000
      9741        71  DOPC      H15S          -16.4756583217        6.3155444217        0.3462867431  MEMB      71              0.0000000000
      9742        71  DOPC      C216          -17.2323416700        4.3293634371        0.7466373573  MEMB      71              0.0000000000
      9743        71  DOPC      H16R          -17.9695901245        4.8005264741        1.4351032035  MEMB      71              0.0000000000
      9744        71  DOPC      H16S          -16.4042222680        3.9783014462        1.3883166788  MEMB      71              0.0000000000
      9745        71  DOPC      C217          -17.9390715721        3.2354296741       -0.0748964398  MEMB      71              0.0000000000
      9746        71  DOPC      H17R          -17.2647375928        3.0089740199       -0.9203086523  MEMB      71              0.0000000000
      9747        71  DOPC      H17S          -18.8533583711        3.7154850136       -0.4830865524  MEMB      71              0.0000000000
      9748        71  DOPC      C218          -18.3665637044        1.8795987112        0.4903844905  MEMB      71              0.0000000000
      9749        71  DOPC      H18R          -17.5118260240        1.2053802325        0.6764255674  MEMB      71              0.0000000000
      9750        71  DOPC      H18S          -18.9741570793        1.3673848937       -0.2909262818  MEMB      71              0.0000000000
      9751        71  DOPC      H18T          -18.9824429358        1.9704600781        1.4074919402  MEMB      71              0.0000000000
      9752        71  DOPC      C33           -16.4965806968        3.5326135031      -12.1748180151  MEMB      71              0.0000000000
      9753        71  DOPC      H3X           -15.4381930176        3.4676129606      -12.5179705722  MEMB      71              0.0000000000
      9754        71  DOPC      H3Y           -16.9210948174        2.5092004363      -12.1811718040  MEMB      71              0.0000000000
      9755        71  DOPC      C34           -16.5284813836        4.1471625046      -10.7777809541  MEMB      71              0.0000000000
      9756        71  DOPC      H4X           -17.5486442496        4.4316763238      -10.4621863748  MEMB      71              0.0000000000
      9757        71  DOPC      H4Y           -15.9887897113        5.1064797213      -10.8685709598  MEMB      71              0.0000000000
      9758        71  DOPC      C35           -15.9093617019        3.3247222360       -9.6547989657  MEMB      71              0.0000000000
      9759        71  DOPC      H5X           -15.4018706049        4.0026926597       -8.9468851058  MEMB      71              0.0000000000
      9760        71  DOPC      H5Y           -15.0826626269        2.6977688722      -10.0598479121  MEMB      71              0.0000000000
      9761        71  DOPC      C36           -16.8927193162        2.4665036620       -8.8273048621  MEMB      71              0.0000000000
      9762        71  DOPC      H6X           -16.7001549340        1.4832207019       -9.2866533207  MEMB      71              0.0000000000
      9763        71  DOPC      H6Y           -16.5608594161        2.3923414785       -7.7720869467  MEMB      71              0.0000000000
      9764        71  DOPC      C37           -18.4430805924        2.5844877671       -8.9391537845  MEMB      71              0.0000000000
      9765        71  DOPC      H7X           -18.7640397880        2.8251462650       -9.9706919421  MEMB      71              0.0000000000
      9766        71  DOPC      H7Y           -18.7767474579        1.5351398975       -8.7562447814  MEMB      71              0.0000000000
      9767        71  DOPC      C38           -19.2183908118        3.4634570111       -7.9179403249  MEMB      71              0.0000000000
      9768        71  DOPC      H8X           -19.4357861933        4.4509553830       -8.3890127769  MEMB      71              0.0000000000
      9769        71  DOPC      H8Y           -18.5292611567        3.6614177441       -7.0747743097  MEMB      71              0.0000000000
      9770        71  DOPC      C39           -20.4737088242        2.7901113576       -7.3707203355  MEMB      71              0.0000000000
      9771        71  DOPC      H9X           -20.3324299286        1.7203638728       -7.1629899950  MEMB      71              0.0000000000
      9772        71  DOPC      C310          -21.6782900908        3.3287840550       -7.0680486890  MEMB      71              0.0000000000
      9773        71  DOPC      H10X          -22.4602931972        2.6791483406       -6.6448772123  MEMB      71              0.0000000000
      9774        71  DOPC      C311          -22.0696005368        4.7778523069       -7.2061223287  MEMB      71              0.0000000000
      9775        71  DOPC      H11X          -22.5921487879        4.9470545005       -8.1766708857  MEMB      71              0.0000000000
      9776        71  DOPC      H11Y          -21.1294922396        5.3596968220       -7.2559230849  MEMB      71              0.0000000000
      9777        71  DOPC      C312          -22.9669738774        5.3727785692       -6.0867450676  MEMB      71              0.0000000000
      9778        71  DOPC      H12X          -23.1755242925        4.6142042828       -5.2996564327  MEMB      71              0.0000000000
      9779        71  DOPC      H12Y          -23.9511131854        5.6545223789       -6.5275972621  MEMB      71              0.0000000000
      9780        71  DOPC      C313          -22.3686664208        6.6244567510       -5.4096788052  MEMB      71              0.0000000000
      9781        71  DOPC      H13X          -23.0964975310        7.0367691294       -4.6772670754  MEMB      71              0.0000000000
      9782        71  DOPC      H13Y          -21.4879413475        6.2894127339       -4.8235390196  MEMB      71              0.0000000000
      9783        71  DOPC      C314          -21.9346328406        7.7294097085       -6.3975417924  MEMB      71              0.0000000000
      9784        71  DOPC      H14X          -21.2256252215        7.2892685939       -7.1341757638  MEMB      71              0.0000000000
      9785        71  DOPC      H14Y          -22.8020232787        8.1052787100       -6.9772576098  MEMB      71              0.0000000000
      9786        71  DOPC      C315          -21.1215603665        8.8722436059       -5.7702435951  MEMB      71              0.0000000000
      9787        71  DOPC      H15X          -20.3288748315        9.1655618201       -6.4988920049  MEMB      71              0.0000000000
      9788        71  DOPC      H15Y          -20.6224477973        8.4779386672       -4.8709780358  MEMB      71              0.0000000000
      9789        71  DOPC      C316          -21.8968084040       10.1415120979       -5.4107460849  MEMB      71              0.0000000000
      9790        71  DOPC      H16X          -22.4217075407       10.4937498668       -6.3273010004  MEMB      71              0.0000000000
      9791        71  DOPC      H16Y          -22.6675851819        9.9181890572       -4.6464047813  MEMB      71              0.0000000000
      9792        71  DOPC      C317          -20.9735039047       11.2701759875       -4.9117201878  MEMB      71              0.0000000000
      9793        71  DOPC      H17X          -20.0625333172       11.3051923215       -5.5538884126  MEMB      71              0.0000000000
      9794        71  DOPC      H17Y          -21.5092035092       12.2370136875       -5.0459687300  MEMB      71              0.0000000000
      9795        71  DOPC      C318          -20.5468214996       11.1647958093       -3.4448033798  MEMB      71              0.0000000000
      9796        71  DOPC      H18X          -19.5776877825       10.6388898809       -3.3637825420  MEMB      71              0.0000000000
      9797        71  DOPC      H18Y          -20.4115287862       12.1725090410       -2.9986668100  MEMB      71              0.0000000000
      9798        71  DOPC      H18Z          -21.2985118001       10.6109618194       -2.8417664005  MEMB      71              0.0000000000
      9799        72  DOPC      N              17.3103265238      -14.7241350977      -20.2942970887  MEMB      72              0.0000000000
      9800        72  DOPC      C12            16.8230777100      -14.6237965396      -18.8516946393  MEMB      72              0.0000000000
      9801        72  DOPC      H12A           17.3367638617      -13.8211328635      -18.3521313126  MEMB      72              0.0000000000
      9802        72  DOPC      H12B           17.0570277920      -15.5536443913      -18.3249895021  MEMB      72              0.0000000000
      9803        72  DOPC      C13            16.5484957833      -15.8434225730      -20.9428881767  MEMB      72              0.0000000000
      9804        72  DOPC      H13A           16.8646063575      -16.8020407288      -20.5499191862  MEMB      72              0.0000000000
      9805        72  DOPC      H13B           15.5022414100      -15.7739284719      -20.6265100288  MEMB      72              0.0000000000
      9806        72  DOPC      H13C           16.5555253384      -15.8109231289      -22.0176998262  MEMB      72              0.0000000000
      9807        72  DOPC      C14            18.7699925048      -15.0222955484      -20.4322199029  MEMB      72              0.0000000000
      9808        72  DOPC      H14A           19.3670390889      -14.2003270686      -20.0771630606  MEMB      72              0.0000000000
      9809        72  DOPC      H14B           19.0407981381      -15.9361254554      -19.9067832242  MEMB      72              0.0000000000
      9810        72  DOPC      H14C           19.0156828265      -15.1731349490      -21.4854118531  MEMB      72              0.0000000000
      9811        72  DOPC      C15            16.9868135059      -13.4447828153      -20.9798361143  MEMB      72              0.0000000000
      9812        72  DOPC      H15A           17.4991098606      -12.5739675258      -20.5715341821  MEMB      72              0.0000000000
      9813        72  DOPC      H15B           15.9275168405      -13.2155124874      -20.8490552885  MEMB      72              0.0000000000
      9814        72  DOPC      H15C           17.1630371795      -13.4713189637      -22.0432083516  MEMB      72              0.0000000000
      9815        72  DOPC      C11            15.2873641845      -14.3631337903      -18.6372226811  MEMB      72              0.0000000000
      9816        72  DOPC      H11A           15.1267389819      -14.2388830762      -17.5348523154  MEMB      72              0.0000000000
      9817        72  DOPC      H11B           15.0198636351      -13.3842770738      -19.0883047021  MEMB      72              0.0000000000
      9818        72  DOPC      P              14.2334247961      -16.6906896780      -18.3065986229  MEMB      72              0.0000000000
      9819        72  DOPC      O13            13.5595177989      -17.7028450187      -19.1407764951  MEMB      72              0.0000000000
      9820        72  DOPC      O14            13.7137607526      -16.2702473825      -16.9859507218  MEMB      72              0.0000000000
      9821        72  DOPC      O12            14.4085854831      -15.3721671595      -19.1908174405  MEMB      72              0.0000000000
      9822        72  DOPC      O11            15.7816755342      -17.0163906253      -18.2469358843  MEMB      72              0.0000000000
      9823        72  DOPC      C1             16.3076907438      -18.2943807551      -17.9059467390  MEMB      72              0.0000000000
      9824        72  DOPC      HA             17.4083459038      -18.2553223674      -18.0784075631  MEMB      72              0.0000000000
      9825        72  DOPC      HB             15.8958768268      -19.0931413702      -18.5608682036  MEMB      72              0.0000000000
      9826        72  DOPC      C2             16.0923573356      -18.6580516816      -16.4063938386  MEMB      72              0.0000000000
      9827        72  DOPC      HS             15.0354206771      -19.0126150264      -16.3163022693  MEMB      72              0.0000000000
      9828        72  DOPC      O21            16.3729586024      -17.4781633243      -15.6320162305  MEMB      72              0.0000000000
      9829        72  DOPC      C21            15.4599790081      -17.2221263407      -14.7085256573  MEMB      72              0.0000000000
      9830        72  DOPC      O22            14.5217822636      -17.9330702019      -14.3991813719  MEMB      72              0.0000000000
      9831        72  DOPC      C22            15.7847604619      -15.8651812825      -14.0450533739  MEMB      72              0.0000000000
      9832        72  DOPC      H2R            15.1282340447      -15.1041995177      -14.5160864388  MEMB      72              0.0000000000
      9833        72  DOPC      H2S            16.8339704394      -15.6030754654      -14.2891051112  MEMB      72              0.0000000000
      9834        72  DOPC      C3             17.0455012846      -19.8065765335      -15.9625804673  MEMB      72              0.0000000000
      9835        72  DOPC      HX             18.0494643148      -19.5166097093      -16.3272373151  MEMB      72              0.0000000000
      9836        72  DOPC      HY             16.7099133646      -20.7173905313      -16.5111578115  MEMB      72              0.0000000000
      9837        72  DOPC      O31            17.1169249760      -19.9980898744      -14.5236658436  MEMB      72              0.0000000000
      9838        72  DOPC      C31            17.5752495436      -21.2061038405      -14.1716098917  MEMB      72              0.0000000000
      9839        72  DOPC      O32            17.8428292775      -22.1023709363      -14.9519683818  MEMB      72              0.0000000000
      9840        72  DOPC      C32            17.6693041490      -21.3668820959      -12.6474926283  MEMB      72              0.0000000000
      9841        72  DOPC      H2X            16.6436895489      -21.2474766773      -12.2488516681  MEMB      72              0.0000000000
      9842        72  DOPC      H2Y            18.0088364269      -22.4038183634      -12.4465486290  MEMB      72              0.0000000000
      9843        72  DOPC      C23            15.6105841636      -15.8572033126      -12.4955460464  MEMB      72              0.0000000000
      9844        72  DOPC      H3R            14.5932622992      -15.4811186341      -12.2459976181  MEMB      72              0.0000000000
      9845        72  DOPC      H3S            16.3352467064      -15.1403767055      -12.0605595231  MEMB      72              0.0000000000
      9846        72  DOPC      C24            15.7491341936      -17.2639019129      -11.8912176928  MEMB      72              0.0000000000
      9847        72  DOPC      H4R            16.4883679436      -17.8537400962      -12.4794335061  MEMB      72              0.0000000000
      9848        72  DOPC      H4S            14.7412195741      -17.7156074795      -12.0157345106  MEMB      72              0.0000000000
      9849        72  DOPC      C25            16.1085588376      -17.4253944864      -10.4178701986  MEMB      72              0.0000000000
      9850        72  DOPC      H5R            16.3930443761      -18.4973325040      -10.2757259138  MEMB      72              0.0000000000
      9851        72  DOPC      H5S            15.2145003326      -17.2471123784       -9.7844447583  MEMB      72              0.0000000000
      9852        72  DOPC      C26            17.2576770823      -16.5412091850       -9.9429007132  MEMB      72              0.0000000000
      9853        72  DOPC      H6R            16.9594426059      -15.4714719208       -9.9578338587  MEMB      72              0.0000000000
      9854        72  DOPC      H6S            18.1264189882      -16.6620574654      -10.6236403147  MEMB      72              0.0000000000
      9855        72  DOPC      C27            17.6577707086      -16.9285782616       -8.5252092961  MEMB      72              0.0000000000
      9856        72  DOPC      H7R            18.7403191432      -16.7536883672       -8.3742463544  MEMB      72              0.0000000000
      9857        72  DOPC      H7S            17.5085510992      -18.0311652325       -8.4223582073  MEMB      72              0.0000000000
      9858        72  DOPC      C28            16.8004675953      -16.1949563867       -7.4670794198  MEMB      72              0.0000000000
      9859        72  DOPC      H8R            16.7976590208      -16.7806865482       -6.5264867524  MEMB      72              0.0000000000
      9860        72  DOPC      H8S            15.7732456792      -16.2685016153       -7.8506190153  MEMB      72              0.0000000000
      9861        72  DOPC      C29            17.1074951098      -14.7329323199       -7.2157866117  MEMB      72              0.0000000000
      9862        72  DOPC      H9R            17.4514714398      -14.1885109822       -8.1140521680  MEMB      72              0.0000000000
      9863        72  DOPC      C210           16.9711252213      -14.0567242187       -6.0434155556  MEMB      72              0.0000000000
      9864        72  DOPC      H10R           17.1392539819      -12.9660769339       -6.0626542177  MEMB      72              0.0000000000
      9865        72  DOPC      C211           16.4694182287      -14.6092613240       -4.7129490865  MEMB      72              0.0000000000
      9866        72  DOPC      H11R           15.9586919321      -15.5785333624       -4.9117490574  MEMB      72              0.0000000000
      9867        72  DOPC      H11S           15.6189817909      -13.9551399779       -4.3987706630  MEMB      72              0.0000000000
      9868        72  DOPC      C212           17.3386772911      -14.8325718660       -3.3988757849  MEMB      72              0.0000000000
      9869        72  DOPC      H12R           17.0595344056      -15.8411259944       -3.0304988022  MEMB      72              0.0000000000
      9870        72  DOPC      H12S           16.9979302176      -14.0886833867       -2.6431637717  MEMB      72              0.0000000000
      9871        72  DOPC      C213           18.8935611111      -14.7932953948       -3.4727403493  MEMB      72              0.0000000000
      9872        72  DOPC      H13R           19.1204512300      -13.7816869588       -3.8729939418  MEMB      72              0.0000000000
      9873        72  DOPC      H13S           19.2474173932      -15.5313891119       -4.1902920107  MEMB      72              0.0000000000
      9874        72  DOPC      C214           19.8195990285      -14.9475449742       -2.2157131231  MEMB      72              0.0000000000
      9875        72  DOPC      H14R           19.4658438366      -14.3049776806       -1.3988387218  MEMB      72              0.0000000000
      9876        72  DOPC      H14S           20.7635040828      -14.4635153157       -2.5430789020  MEMB      72              0.0000000000
      9877        72  DOPC      C215           20.4231966314      -16.3073588294       -1.7067915343  MEMB      72              0.0000000000
      9878        72  DOPC      H15R           19.6547831846      -17.0262609826       -1.3611257703  MEMB      72              0.0000000000
      9879        72  DOPC      H15S           20.9652095567      -15.9955134490       -0.7935394376  MEMB      72              0.0000000000
      9880        72  DOPC      C216           21.3731296717      -16.9533236598       -2.7551542851  MEMB      72              0.0000000000
      9881        72  DOPC      H16R           21.8063380746      -16.1188199228       -3.3407282687  MEMB      72              0.0000000000
      9882        72  DOPC      H16S           20.6987564921      -17.4304909011       -3.4696606835  MEMB      72              0.0000000000
      9883        72  DOPC      C217           22.5427866635      -17.9818629314       -2.5086924615  MEMB      72              0.0000000000
      9884        72  DOPC      H17R           23.4671717142      -17.4588218510       -2.2672442998  MEMB      72              0.0000000000
      9885        72  DOPC      H17S           22.7373005076      -18.4208402699       -3.5183405461  MEMB      72              0.0000000000
      9886        72  DOPC      C218           22.5216647689      -19.1564947851       -1.5075218233  MEMB      72              0.0000000000
      9887        72  DOPC      H18R           22.3654668310      -20.1135611104       -2.0560044006  MEMB      72              0.0000000000
      9888        72  DOPC      H18S           21.7317064049      -19.0401641560       -0.7384755767  MEMB      72              0.0000000000
      9889        72  DOPC      H18T           23.5081550870      -19.2478266675       -1.0012628925  MEMB      72              0.0000000000
      9890        72  DOPC      C33            18.6116032616      -20.3656360101      -11.9357141769  MEMB      72              0.0000000000
      9891        72  DOPC      H3X            18.3660335642      -20.3371085483      -10.8527714346  MEMB      72              0.0000000000
      9892        72  DOPC      H3Y            18.3832746144      -19.3562612843      -12.3303548794  MEMB      72              0.0000000000
      9893        72  DOPC      C34            20.1048641828      -20.7188077332      -12.0664877766  MEMB      72              0.0000000000
      9894        72  DOPC      H4X            20.5310218177      -20.0814657850      -12.8785039540  MEMB      72              0.0000000000
      9895        72  DOPC      H4Y            20.2226768501      -21.7654815791      -12.4219119037  MEMB      72              0.0000000000
      9896        72  DOPC      C35            20.9674415061      -20.5301430214      -10.7899837257  MEMB      72              0.0000000000
      9897        72  DOPC      H5X            20.9740681375      -19.4515291392      -10.5175000185  MEMB      72              0.0000000000
      9898        72  DOPC      H5Y            22.0103987067      -20.7988217508      -11.0647957491  MEMB      72              0.0000000000
      9899        72  DOPC      C36            20.5920361250      -21.3648328611       -9.5324485635  MEMB      72              0.0000000000
      9900        72  DOPC      H6X            19.8848568399      -22.1302801431       -9.8456635243  MEMB      72              0.0000000000
      9901        72  DOPC      H6Y            21.4722268584      -21.9409378445       -9.1825868274  MEMB      72              0.0000000000
      9902        72  DOPC      C37            20.1852095261      -20.4518616020       -8.3562922816  MEMB      72              0.0000000000
      9903        72  DOPC      H7X            21.1393042889      -19.9989661092       -8.0103591805  MEMB      72              0.0000000000
      9904        72  DOPC      H7Y            19.5869362365      -19.6146373260       -8.7908707710  MEMB      72              0.0000000000
      9905        72  DOPC      C38            19.4106118877      -20.8758380634       -7.0391218434  MEMB      72              0.0000000000
      9906        72  DOPC      H8X            18.3237632293      -20.7951151237       -7.2347588945  MEMB      72              0.0000000000
      9907        72  DOPC      H8Y            19.6949410098      -19.9363574695       -6.5691077116  MEMB      72              0.0000000000
      9908        72  DOPC      C39            19.6771153158      -21.9617805492       -5.9876295774  MEMB      72              0.0000000000
      9909        72  DOPC      H9X            20.6933578874      -22.3531541886       -6.1015621727  MEMB      72              0.0000000000
      9910        72  DOPC      C310           18.9697752251      -22.4431967519       -4.8992647881  MEMB      72              0.0000000000
      9911        72  DOPC      H10X           19.3673509639      -23.3693778537       -4.4581158106  MEMB      72              0.0000000000
      9912        72  DOPC      C311           17.6144459160      -22.1184941370       -4.2524069987  MEMB      72              0.0000000000
      9913        72  DOPC      H11X           16.9296064857      -22.9116993775       -4.6088820123  MEMB      72              0.0000000000
      9914        72  DOPC      H11Y           17.2010735916      -21.1602528366       -4.6295103511  MEMB      72              0.0000000000
      9915        72  DOPC      C312           17.2823447115      -22.2028630098       -2.7117757056  MEMB      72              0.0000000000
      9916        72  DOPC      H12X           18.1109319165      -21.9193440133       -2.0207943773  MEMB      72              0.0000000000
      9917        72  DOPC      H12Y           17.0628601711      -23.2763311197       -2.4766012068  MEMB      72              0.0000000000
      9918        72  DOPC      C313           15.9682020371      -21.4454322413       -2.3631908833  MEMB      72              0.0000000000
      9919        72  DOPC      H13X           15.6661292832      -20.7129605117       -3.1344931697  MEMB      72              0.0000000000
      9920        72  DOPC      H13Y           15.1565035549      -22.2113831408       -2.3687619835  MEMB      72              0.0000000000
      9921        72  DOPC      C314           15.9477120090      -20.7794650145       -0.9776284001  MEMB      72              0.0000000000
      9922        72  DOPC      H14X           14.9265212396      -20.7951909526       -0.5960572416  MEMB      72              0.0000000000
      9923        72  DOPC      H14Y           16.5808823527      -21.3763609243       -0.2903611202  MEMB      72              0.0000000000
      9924        72  DOPC      C315           16.2834285188      -19.2896445023       -0.8390437872  MEMB      72              0.0000000000
      9925        72  DOPC      H15X           17.3633712475      -19.2271284673       -0.9610612963  MEMB      72              0.0000000000
      9926        72  DOPC      H15Y           16.1283750194      -18.9743250671        0.2029952251  MEMB      72              0.0000000000
      9927        72  DOPC      C316           15.6453884174      -18.2778448076       -1.8120751502  MEMB      72              0.0000000000
      9928        72  DOPC      H16X           16.3909606577      -17.4482412326       -1.8475721722  MEMB      72              0.0000000000
      9929        72  DOPC      H16Y           15.5590197555      -18.6816006324       -2.8383859043  MEMB      72              0.0000000000
      9930        72  DOPC      C317           14.3242817480      -17.6127200607       -1.4063237817  MEMB      72              0.0000000000
      9931        72  DOPC      H17X           14.4156550217      -17.1973873337       -0.3874577549  MEMB      72              0.0000000000
      9932        72  DOPC      H17Y           14.1754150544      -16.7395746076       -2.0837187854  MEMB      72              0.0000000000
      9933        72  DOPC      C318           13.0839101506      -18.4928286460       -1.5090674159  MEMB      72              0.0000000000
      9934        72  DOPC      H18X           12.6908347010      -18.4143039950       -2.5357895881  MEMB      72              0.0000000000
      9935        72  DOPC      H18Y           13.3101620426      -19.5559285021       -1.2917931822  MEMB      72              0.0000000000
      9936        72  DOPC      H18Z           12.2586773102      -18.1512894117       -0.8548978803  MEMB      72              0.0000000000
      9937        73  DOPC      N              21.8019622569       -5.9269264917      -18.0328162763  MEMB      73              0.0000000000
      9938        73  DOPC      C12            21.5525801880       -7.4317967572      -17.8562779984  MEMB      73              0.0000000000
      9939        73  DOPC      H12A           20.5365096404       -7.5944437336      -17.4855529232  MEMB      73              0.0000000000
      9940        73  DOPC      H12B           22.1892099603       -7.8221131676      -17.0698907092  MEMB      73              0.0000000000
      9941        73  DOPC      C13            23.1644346951       -5.6117924016      -18.5468409369  MEMB      73              0.0000000000
      9942        73  DOPC      H13A           23.8718051454       -5.8130076610      -17.7715418147  MEMB      73              0.0000000000
      9943        73  DOPC      H13B           23.4117417715       -6.2186778833      -19.4110981924  MEMB      73              0.0000000000
      9944        73  DOPC      H13C           23.2693566741       -4.5677894616      -18.8287486673  MEMB      73              0.0000000000
      9945        73  DOPC      C14            21.5603300254       -5.2544088876      -16.7121397410  MEMB      73              0.0000000000
      9946        73  DOPC      H14A           20.5104494320       -5.3285769110      -16.4529076728  MEMB      73              0.0000000000
      9947        73  DOPC      H14B           22.1162428265       -5.6939602704      -15.8943123731  MEMB      73              0.0000000000
      9948        73  DOPC      H14C           21.7586009956       -4.1843675185      -16.7518511172  MEMB      73              0.0000000000
      9949        73  DOPC      C15            20.8839517773       -5.3258963667      -19.0485798846  MEMB      73              0.0000000000
      9950        73  DOPC      H15A           19.8315796516       -5.5269352016      -18.8452180768  MEMB      73              0.0000000000
      9951        73  DOPC      H15B           21.0711003495       -5.8006504638      -20.0069454652  MEMB      73              0.0000000000
      9952        73  DOPC      H15C           21.0329361831       -4.2611303227      -19.1493918251  MEMB      73              0.0000000000
      9953        73  DOPC      C11            21.6850926668       -8.3788014332      -19.0758277515  MEMB      73              0.0000000000
      9954        73  DOPC      H11A           22.6931911550       -8.2606907277      -19.5331329403  MEMB      73              0.0000000000
      9955        73  DOPC      H11B           21.6041445640       -9.4319491613      -18.7130413470  MEMB      73              0.0000000000
      9956        73  DOPC      P              19.1346948885       -8.2774956112      -19.7786645646  MEMB      73              0.0000000000
      9957        73  DOPC      O13            18.5946701415       -9.1926566731      -20.7990966343  MEMB      73              0.0000000000
      9958        73  DOPC      O14            18.5475678396       -6.9252334539      -19.6629569019  MEMB      73              0.0000000000
      9959        73  DOPC      O12            20.6931474792       -8.1254231356      -20.0580224032  MEMB      73              0.0000000000
      9960        73  DOPC      O11            19.0884153564       -9.0378986236      -18.3659334075  MEMB      73              0.0000000000
      9961        73  DOPC      C1             18.2972486251      -10.2495425240      -18.3980307598  MEMB      73              0.0000000000
      9962        73  DOPC      HA             18.6206824962      -10.9359579991      -19.2217891529  MEMB      73              0.0000000000
      9963        73  DOPC      HB             17.2287381614       -9.9897913678      -18.5594753321  MEMB      73              0.0000000000
      9964        73  DOPC      C2             18.3656665508      -11.1098384058      -17.1038716775  MEMB      73              0.0000000000
      9965        73  DOPC      HS             17.5314302528      -11.8501764969      -17.1143700005  MEMB      73              0.0000000000
      9966        73  DOPC      O21            18.2849192559      -10.2924056311      -15.9257198384  MEMB      73              0.0000000000
      9967        73  DOPC      C21            17.1437859313       -9.6084012980      -15.8701825219  MEMB      73              0.0000000000
      9968        73  DOPC      O22            16.1082343234       -9.8870417471      -16.4556229491  MEMB      73              0.0000000000
      9969        73  DOPC      C22            17.2820953433       -8.3575732992      -15.0010686722  MEMB      73              0.0000000000
      9970        73  DOPC      H2R            16.3378676275       -8.3036364405      -14.4204716899  MEMB      73              0.0000000000
      9971        73  DOPC      H2S            17.3314298186       -7.4745557749      -15.6713748298  MEMB      73              0.0000000000
      9972        73  DOPC      C3             19.6934250119      -11.9215166802      -17.1657347562  MEMB      73              0.0000000000
      9973        73  DOPC      HX             20.4166334904      -11.3337775298      -17.7820073108  MEMB      73              0.0000000000
      9974        73  DOPC      HY             19.4522401665      -12.8261886599      -17.7683190979  MEMB      73              0.0000000000
      9975        73  DOPC      O31            20.2230480223      -12.3434779889      -15.8849536323  MEMB      73              0.0000000000
      9976        73  DOPC      C31            21.2022997155      -11.5434977999      -15.4242292727  MEMB      73              0.0000000000
      9977        73  DOPC      O32            21.6177321655      -10.5606087437      -16.0065723790  MEMB      73              0.0000000000
      9978        73  DOPC      C32            21.7938167853      -12.0510746429      -14.1072734023  MEMB      73              0.0000000000
      9979        73  DOPC      H2X            21.0221346396      -11.9626022632      -13.3203084197  MEMB      73              0.0000000000
      9980        73  DOPC      H2Y            22.0667040911      -13.1166551732      -14.2389524573  MEMB      73              0.0000000000
      9981        73  DOPC      C23            18.4679348705       -8.3474372689      -14.0080004950  MEMB      73              0.0000000000
      9982        73  DOPC      H3R            18.6528581695       -9.3610453720      -13.5880605123  MEMB      73              0.0000000000
      9983        73  DOPC      H3S            18.1594722868       -7.6994709668      -13.1569374238  MEMB      73              0.0000000000
      9984        73  DOPC      C24            19.7682557887       -7.7715736798      -14.5925225757  MEMB      73              0.0000000000
      9985        73  DOPC      H4R            19.5529552318       -6.8046214663      -15.0958900210  MEMB      73              0.0000000000
      9986        73  DOPC      H4S            20.1523920027       -8.4827488289      -15.3602999780  MEMB      73              0.0000000000
      9987        73  DOPC      C25            20.8550131621       -7.5406059392      -13.5233489284  MEMB      73              0.0000000000
      9988        73  DOPC      H5R            21.8277837519       -7.3300842382      -14.0211484085  MEMB      73              0.0000000000
      9989        73  DOPC      H5S            20.9858155704       -8.4807529283      -12.9458061211  MEMB      73              0.0000000000
      9990        73  DOPC      C26            20.5264985381       -6.3652521503      -12.5833167410  MEMB      73              0.0000000000
      9991        73  DOPC      H6R            19.5157168649       -6.5006352343      -12.1398400145  MEMB      73              0.0000000000
      9992        73  DOPC      H6S            20.5072224007       -5.4303039583      -13.1867279924  MEMB      73              0.0000000000
      9993        73  DOPC      C27            21.5096716995       -6.1655131721      -11.4151357940  MEMB      73              0.0000000000
      9994        73  DOPC      H7R            21.1593268303       -5.3172975678      -10.7842884805  MEMB      73              0.0000000000
      9995        73  DOPC      H7S            22.5051353574       -5.8879334374      -11.8301700216  MEMB      73              0.0000000000
      9996        73  DOPC      C28            21.6820029503       -7.4046638993      -10.5157418399  MEMB      73              0.0000000000
      9997        73  DOPC      H8R            22.2832663944       -7.1343922696       -9.6206871601  MEMB      73              0.0000000000
      9998        73  DOPC      H8S            22.3077777002       -8.1108909278      -11.0946784823  MEMB      73              0.0000000000
      9999        73  DOPC      C29            20.3951044116       -8.0770054091      -10.1069215936  MEMB      73              0.0000000000
     10000        73  DOPC      H9R            20.0985735683       -8.9322517005      -10.7324032026  MEMB      73              0.0000000000
     10001        73  DOPC      C210           19.6085354921       -7.7296341735       -9.0772807107  MEMB      73              0.0000000000
     10002        73  DOPC      H10R           18.6938790164       -8.3119477734       -8.8863511633  MEMB      73              0.0000000000
     10003        73  DOPC      C211           19.8504464832       -6.5959379957       -8.1166297083  MEMB      73              0.0000000000
     10004        73  DOPC      H11R           19.0622067571       -5.8333311298       -8.2524553668  MEMB      73              0.0000000000
     10005        73  DOPC      H11S           20.8374111642       -6.1028428092       -8.2649303203  MEMB      73              0.0000000000
     10006        73  DOPC      C212           19.7265086281       -7.0464029537       -6.6601857626  MEMB      73              0.0000000000
     10007        73  DOPC      H12R           18.7290230301       -7.5215071439       -6.5281341696  MEMB      73              0.0000000000
     10008        73  DOPC      H12S           19.7531801845       -6.1534010193       -5.9942488429  MEMB      73              0.0000000000
     10009        73  DOPC      C213           20.8371932951       -8.0062263087       -6.2415353002  MEMB      73              0.0000000000
     10010        73  DOPC      H13R           21.8158108760       -7.4742450782       -6.2849181636  MEMB      73              0.0000000000
     10011        73  DOPC      H13S           20.8941559029       -8.8609831541       -6.9516576769  MEMB      73              0.0000000000
     10012        73  DOPC      C214           20.6187201882       -8.5518508669       -4.8323170204  MEMB      73              0.0000000000
     10013        73  DOPC      H14R           20.6471531072       -7.7131252217       -4.1010438808  MEMB      73              0.0000000000
     10014        73  DOPC      H14S           21.4779414644       -9.2161084675       -4.5966689500  MEMB      73              0.0000000000
     10015        73  DOPC      C215           19.3093489628       -9.3431382856       -4.6464100505  MEMB      73              0.0000000000
     10016        73  DOPC      H15R           19.2666159122      -10.1762878644       -5.3828196824  MEMB      73              0.0000000000
     10017        73  DOPC      H15S           18.4245261480       -8.6876570273       -4.8000199822  MEMB      73              0.0000000000
     10018        73  DOPC      C216           19.2757640945       -9.8911439466       -3.2234110526  MEMB      73              0.0000000000
     10019        73  DOPC      H16R           19.2587822311       -9.0343530411       -2.5251341356  MEMB      73              0.0000000000
     10020        73  DOPC      H16S           20.2419418427      -10.3977507492       -3.0594963920  MEMB      73              0.0000000000
     10021        73  DOPC      C217           18.1433029130      -10.8401307329       -2.8333758343  MEMB      73              0.0000000000
     10022        73  DOPC      H17R           18.2009912421      -11.7753359673       -3.4334882002  MEMB      73              0.0000000000
     10023        73  DOPC      H17S           17.1559083371      -10.3659789731       -3.0342352217  MEMB      73              0.0000000000
     10024        73  DOPC      C218           18.2714597069      -11.1625692209       -1.3407309945  MEMB      73              0.0000000000
     10025        73  DOPC      H18R           18.2800137038      -10.2129137674       -0.7581324562  MEMB      73              0.0000000000
     10026        73  DOPC      H18S           19.2327309679      -11.6887118509       -1.1467078664  MEMB      73              0.0000000000
     10027        73  DOPC      H18T           17.4389589059      -11.8010890846       -0.9802547370  MEMB      73              0.0000000000
     10028        73  DOPC      C33            23.0516772790      -11.2134990964      -13.7394978204  MEMB      73              0.0000000000
     10029        73  DOPC      H3X            22.8255451613      -10.1247276461      -13.8062564146  MEMB      73              0.0000000000
     10030        73  DOPC      H3Y            23.8179804553      -11.4342073382      -14.5162900994  MEMB      73              0.0000000000
     10031        73  DOPC      C34            23.6999042975      -11.5008770516      -12.3713923791  MEMB      73              0.0000000000
     10032        73  DOPC      H4X            24.7991593337      -11.5640255708      -12.5154140976  MEMB      73              0.0000000000
     10033        73  DOPC      H4Y            23.3353595627      -12.4642783769      -11.9734353920  MEMB      73              0.0000000000
     10034        73  DOPC      C35            23.5172556069      -10.4069348733      -11.3146178963  MEMB      73              0.0000000000
     10035        73  DOPC      H5X            22.4449577330      -10.1175671731      -11.3324417650  MEMB      73              0.0000000000
     10036        73  DOPC      H5Y            24.1163785000       -9.5116615398      -11.6050711845  MEMB      73              0.0000000000
     10037        73  DOPC      C36            23.8875522878      -10.8722932763       -9.8887559214  MEMB      73              0.0000000000
     10038        73  DOPC      H6X            24.1704737463      -11.9410382440       -9.9015482192  MEMB      73              0.0000000000
     10039        73  DOPC      H6Y            24.8166586221      -10.3813997676       -9.5651401138  MEMB      73              0.0000000000
     10040        73  DOPC      C37            22.7448741090      -10.5776472533       -8.8956136274  MEMB      73              0.0000000000
     10041        73  DOPC      H7X            22.6823556932       -9.4785408954       -8.7189942952  MEMB      73              0.0000000000
     10042        73  DOPC      H7Y            21.7871989858      -10.8582543811       -9.3942684583  MEMB      73              0.0000000000
     10043        73  DOPC      C38            22.7320067849      -11.2743345845       -7.5102653904  MEMB      73              0.0000000000
     10044        73  DOPC      H8X            21.8363290696      -11.9345720186       -7.5211897179  MEMB      73              0.0000000000
     10045        73  DOPC      H8Y            22.4823489383      -10.4827260410       -6.7673622134  MEMB      73              0.0000000000
     10046        73  DOPC      C39            23.9235117510      -12.0247288004       -6.9706688629  MEMB      73              0.0000000000
     10047        73  DOPC      H9X            24.8776604711      -11.9192559815       -7.5079595369  MEMB      73              0.0000000000
     10048        73  DOPC      C310           23.8379421536      -12.8845576785       -5.9413563843  MEMB      73              0.0000000000
     10049        73  DOPC      H10X           24.7230626516      -13.4736590968       -5.6533935367  MEMB      73              0.0000000000
     10050        73  DOPC      C311           22.5563090345      -13.2136940602       -5.2137010647  MEMB      73              0.0000000000
     10051        73  DOPC      H11X           22.6570417554      -14.1668923385       -4.6445244409  MEMB      73              0.0000000000
     10052        73  DOPC      H11Y           21.8555008164      -13.4221825179       -6.0298478282  MEMB      73              0.0000000000
     10053        73  DOPC      C312           21.7038612990      -12.2531188281       -4.3541424244  MEMB      73              0.0000000000
     10054        73  DOPC      H12X           20.6648816470      -12.6500504854       -4.3844898549  MEMB      73              0.0000000000
     10055        73  DOPC      H12Y           21.6567020101      -11.2488047429       -4.8098620073  MEMB      73              0.0000000000
     10056        73  DOPC      C313           22.1049495136      -12.1990731272       -2.8834274832  MEMB      73              0.0000000000
     10057        73  DOPC      H13X           21.2580419224      -11.8839903611       -2.2430422377  MEMB      73              0.0000000000
     10058        73  DOPC      H13Y           22.3242683118      -13.2285591610       -2.5321756198  MEMB      73              0.0000000000
     10059        73  DOPC      C314           23.3734811919      -11.3680213518       -2.6798179414  MEMB      73              0.0000000000
     10060        73  DOPC      H14X           23.9768119605      -11.9134621829       -1.9220590695  MEMB      73              0.0000000000
     10061        73  DOPC      H14Y           23.9544675356      -11.3265374068       -3.6263108919  MEMB      73              0.0000000000
     10062        73  DOPC      C315           23.1918520028       -9.9731491709       -2.1148524763  MEMB      73              0.0000000000
     10063        73  DOPC      H15X           22.7589452133       -9.2817728572       -2.8663362742  MEMB      73              0.0000000000
     10064        73  DOPC      H15Y           24.2121578432       -9.6006409559       -1.8634158675  MEMB      73              0.0000000000
     10065        73  DOPC      C316           22.3263291245      -10.0188247807       -0.8629368409  MEMB      73              0.0000000000
     10066        73  DOPC      H16X           21.3155900460       -9.6216272270       -1.1015585129  MEMB      73              0.0000000000
     10067        73  DOPC      H16Y           22.1903231157      -11.0739968568       -0.5259010483  MEMB      73              0.0000000000
     10068        73  DOPC      C317           22.9353234982       -9.2726269078        0.3092254167  MEMB      73              0.0000000000
     10069        73  DOPC      H17X           23.7990430458       -9.8594168833        0.7009728594  MEMB      73              0.0000000000
     10070        73  DOPC      H17Y           23.3202613126       -8.2862760263       -0.0324388546  MEMB      73              0.0000000000
     10071        73  DOPC      C318           21.8771491081       -9.0734086459        1.3838931209  MEMB      73              0.0000000000
     10072        73  DOPC      H18X           21.2123457103       -9.9652743535        1.4339609549  MEMB      73              0.0000000000
     10073        73  DOPC      H18Y           22.3365619052       -8.8885228521        2.3745427243  MEMB      73              0.0000000000
     10074        73  DOPC      H18Z           21.2561794011       -8.1946860371        1.1153207540  MEMB      73              0.0000000000
     10075        74  DOPC      N              20.7555863150        6.1711160811      -18.0193416696  MEMB      74              0.0000000000
     10076        74  DOPC      C12            21.8720405325        6.3086577804      -19.0581076813  MEMB      74              0.0000000000
     10077        74  DOPC      H12A           21.5283646794        5.9633504007      -20.0276292027  MEMB      74              0.0000000000
     10078        74  DOPC      H12B           22.6998362522        5.6643868320      -18.7818842112  MEMB      74              0.0000000000
     10079        74  DOPC      C13            19.5669814429        7.0252935415      -18.3855893705  MEMB      74              0.0000000000
     10080        74  DOPC      H13A           18.6920502810        6.8913195401      -17.7531208219  MEMB      74              0.0000000000
     10081        74  DOPC      H13B           19.8375515469        8.0842014273      -18.3707917873  MEMB      74              0.0000000000
     10082        74  DOPC      H13C           19.2685362430        6.8629893301      -19.4235271121  MEMB      74              0.0000000000
     10083        74  DOPC      C14            21.2529428988        6.6425679587      -16.6827127239  MEMB      74              0.0000000000
     10084        74  DOPC      H14A           22.1713657675        6.1619226639      -16.3442352288  MEMB      74              0.0000000000
     10085        74  DOPC      H14B           21.4538512081        7.7121259163      -16.7301457493  MEMB      74              0.0000000000
     10086        74  DOPC      H14C           20.4954524571        6.4832543123      -15.9260887850  MEMB      74              0.0000000000
     10087        74  DOPC      C15            20.3001157662        4.7429282032      -17.9522068729  MEMB      74              0.0000000000
     10088        74  DOPC      H15A           19.8271566993        4.4637580640      -18.8913590176  MEMB      74              0.0000000000
     10089        74  DOPC      H15B           19.5646331764        4.6118679193      -17.1638901512  MEMB      74              0.0000000000
     10090        74  DOPC      H15C           21.1355399021        4.0799978233      -17.7735346134  MEMB      74              0.0000000000
     10091        74  DOPC      C11            22.5199133795        7.6940234959      -19.2916878735  MEMB      74              0.0000000000
     10092        74  DOPC      H11A           22.9889045885        8.0688352840      -18.3569735019  MEMB      74              0.0000000000
     10093        74  DOPC      H11B           23.3398372983        7.4970601452      -20.0317149615  MEMB      74              0.0000000000
     10094        74  DOPC      P              22.2142365315        9.9626805674      -20.4286188386  MEMB      74              0.0000000000
     10095        74  DOPC      O13            21.2062290242       10.5392849282      -21.3537197472  MEMB      74              0.0000000000
     10096        74  DOPC      O14            23.5248428218        9.6530776412      -21.0318757496  MEMB      74              0.0000000000
     10097        74  DOPC      O12            21.5825567385        8.6496757006      -19.7926278701  MEMB      74              0.0000000000
     10098        74  DOPC      O11            22.4271381298       10.9040965942      -19.1722349672  MEMB      74              0.0000000000
     10099        74  DOPC      C1             21.5186512844       10.8166182542      -18.0748980484  MEMB      74              0.0000000000
     10100        74  DOPC      HA             21.2843432845        9.7614118239      -17.7962918811  MEMB      74              0.0000000000
     10101        74  DOPC      HB             20.5515581670       11.3143697186      -18.3284960942  MEMB      74              0.0000000000
     10102        74  DOPC      C2             22.0922071150       11.4720302325      -16.7932195543  MEMB      74              0.0000000000
     10103        74  DOPC      HS             22.3803467270       12.5160604892      -17.0268362097  MEMB      74              0.0000000000
     10104        74  DOPC      O21            23.2319053172       10.7430802164      -16.3208765398  MEMB      74              0.0000000000
     10105        74  DOPC      C21            23.7038805180       11.0197864464      -15.1235379016  MEMB      74              0.0000000000
     10106        74  DOPC      O22            23.6258476845       12.0683942784      -14.5131225542  MEMB      74              0.0000000000
     10107        74  DOPC      C22            24.3680780391        9.7316918340      -14.6625356542  MEMB      74              0.0000000000
     10108        74  DOPC      H2R            25.1466224459        9.4891040225      -15.4001438749  MEMB      74              0.0000000000
     10109        74  DOPC      H2S            23.6200411537        8.9095516688      -14.6939832801  MEMB      74              0.0000000000
     10110        74  DOPC      C3             20.9702882640       11.4522225214      -15.7537230545  MEMB      74              0.0000000000
     10111        74  DOPC      HX             20.0704353588       11.8775515046      -16.2465761403  MEMB      74              0.0000000000
     10112        74  DOPC      HY             21.2289362419       12.1144120574      -14.8945120740  MEMB      74              0.0000000000
     10113        74  DOPC      O31            20.7432970065       10.0734273021      -15.3571244879  MEMB      74              0.0000000000
     10114        74  DOPC      C31            19.7584083675       10.0549617707      -14.4719648155  MEMB      74              0.0000000000
     10115        74  DOPC      O32            19.1011974284       11.0298900761      -14.1624101642  MEMB      74              0.0000000000
     10116        74  DOPC      C32            19.6174557624        8.7093079361      -13.7878534863  MEMB      74              0.0000000000
     10117        74  DOPC      H2X            18.9068020548        8.1035911495      -14.3865518348  MEMB      74              0.0000000000
     10118        74  DOPC      H2Y            20.5992548324        8.1977235820      -13.7372933069  MEMB      74              0.0000000000
     10119        74  DOPC      C23            25.0138833550        9.8249130132      -13.2860608458  MEMB      74              0.0000000000
     10120        74  DOPC      H3R            25.3050464356       10.8632529381      -13.0138161896  MEMB      74              0.0000000000
     10121        74  DOPC      H3S            25.9553901597        9.2324801094      -13.3248158770  MEMB      74              0.0000000000
     10122        74  DOPC      C24            24.1017652085        9.2121868106      -12.2374833836  MEMB      74              0.0000000000
     10123        74  DOPC      H4R            23.8442999704        8.1743043704      -12.5585174218  MEMB      74              0.0000000000
     10124        74  DOPC      H4S            23.1535964177        9.7885050286      -12.1584543505  MEMB      74              0.0000000000
     10125        74  DOPC      C25            24.8096256193        9.1507831294      -10.8949780642  MEMB      74              0.0000000000
     10126        74  DOPC      H5R            24.8874703732       10.1679529243      -10.4487883437  MEMB      74              0.0000000000
     10127        74  DOPC      H5S            25.8501381562        8.7887874833      -11.0604574183  MEMB      74              0.0000000000
     10128        74  DOPC      C26            24.1185031644        8.1796383525       -9.9437672909  MEMB      74              0.0000000000
     10129        74  DOPC      H6R            24.9250434772        7.8528208672       -9.2552973692  MEMB      74              0.0000000000
     10130        74  DOPC      H6S            23.7650790299        7.2734589812      -10.4844749429  MEMB      74              0.0000000000
     10131        74  DOPC      C27            22.9474684829        8.8494386675       -9.2025616602  MEMB      74              0.0000000000
     10132        74  DOPC      H7R            22.0850179319        8.8762631121       -9.8798447311  MEMB      74              0.0000000000
     10133        74  DOPC      H7S            23.2043511895        9.9173437194       -9.0204580490  MEMB      74              0.0000000000
     10134        74  DOPC      C28            22.5139193624        8.2028699806       -7.8733976934  MEMB      74              0.0000000000
     10135        74  DOPC      H8R            21.8629111541        7.3174809679       -8.0472118731  MEMB      74              0.0000000000
     10136        74  DOPC      H8S            21.9058320745        8.9494426381       -7.3201502251  MEMB      74              0.0000000000
     10137        74  DOPC      C29            23.7543408298        7.8381704577       -7.1148629935  MEMB      74              0.0000000000
     10138        74  DOPC      H9R            24.0651525737        6.7854564267       -7.2038641419  MEMB      74              0.0000000000
     10139        74  DOPC      C210           24.4972417137        8.6899117008       -6.3932746925  MEMB      74              0.0000000000
     10140        74  DOPC      H10R           25.4391410182        8.3136206638       -5.9755557871  MEMB      74              0.0000000000
     10141        74  DOPC      C211           24.2480475915       10.1696809094       -6.1722991915  MEMB      74              0.0000000000
     10142        74  DOPC      H11R           23.4662352969       10.5765551185       -6.8494476184  MEMB      74              0.0000000000
     10143        74  DOPC      H11S           25.1767447126       10.7624754327       -6.3190341272  MEMB      74              0.0000000000
     10144        74  DOPC      C212           23.7715079494       10.2574828816       -4.7160207110  MEMB      74              0.0000000000
     10145        74  DOPC      H12R           24.6050506954       10.0751894336       -4.0183870963  MEMB      74              0.0000000000
     10146        74  DOPC      H12S           23.0156447216        9.4474430112       -4.5564481356  MEMB      74              0.0000000000
     10147        74  DOPC      C213           23.1391750768       11.5296395398       -4.1535978236  MEMB      74              0.0000000000
     10148        74  DOPC      H13R           22.4687795357       12.0026554686       -4.8932267658  MEMB      74              0.0000000000
     10149        74  DOPC      H13S           23.9170773688       12.2592662187       -3.8369005586  MEMB      74              0.0000000000
     10150        74  DOPC      C214           22.3404998394       11.0119793718       -2.9536521987  MEMB      74              0.0000000000
     10151        74  DOPC      H14R           23.0123610848       10.3765901059       -2.3323186138  MEMB      74              0.0000000000
     10152        74  DOPC      H14S           21.5559269436       10.3477051053       -3.3867967658  MEMB      74              0.0000000000
     10153        74  DOPC      C215           21.6649103194       12.0058465205       -2.0226122714  MEMB      74              0.0000000000
     10154        74  DOPC      H15R           20.9851912350       12.6329331265       -2.6359108195  MEMB      74              0.0000000000
     10155        74  DOPC      H15S           22.4102349454       12.6735223158       -1.5430303241  MEMB      74              0.0000000000
     10156        74  DOPC      C216           20.8690626133       11.2168362101       -0.9648737671  MEMB      74              0.0000000000
     10157        74  DOPC      H16R           20.4925676656       11.8849823398       -0.1669193008  MEMB      74              0.0000000000
     10158        74  DOPC      H16S           21.5356433506       10.4683796522       -0.4781747644  MEMB      74              0.0000000000
     10159        74  DOPC      C217           19.7033550047       10.4761139697       -1.6295040655  MEMB      74              0.0000000000
     10160        74  DOPC      H17R           20.0900882837        9.5192411132       -2.0354957101  MEMB      74              0.0000000000
     10161        74  DOPC      H17S           19.3726572086       11.0969879158       -2.4983575718  MEMB      74              0.0000000000
     10162        74  DOPC      C218           18.4707356243       10.2003725466       -0.7800403085  MEMB      74              0.0000000000
     10163        74  DOPC      H18R           18.5662201913       10.6377655455        0.2351046069  MEMB      74              0.0000000000
     10164        74  DOPC      H18S           18.2446817231        9.1366236613       -0.6550640405  MEMB      74              0.0000000000
     10165        74  DOPC      H18T           17.5890222173       10.6146552882       -1.3156049720  MEMB      74              0.0000000000
     10166        74  DOPC      C33            19.0319994532        8.9491968458      -12.3758792907  MEMB      74              0.0000000000
     10167        74  DOPC      H3X            18.6631802620        7.9787380374      -11.9838732912  MEMB      74              0.0000000000
     10168        74  DOPC      H3Y            18.1620017660        9.6437416621      -12.4008434251  MEMB      74              0.0000000000
     10169        74  DOPC      C34            20.0671752443        9.4728100299      -11.3722056752  MEMB      74              0.0000000000
     10170        74  DOPC      H4X            20.6302989789       10.3435427172      -11.7794957374  MEMB      74              0.0000000000
     10171        74  DOPC      H4Y            20.7748173858        8.6298417855      -11.2356151854  MEMB      74              0.0000000000
     10172        74  DOPC      C35            19.4615663671        9.8875662407      -10.0207905714  MEMB      74              0.0000000000
     10173        74  DOPC      H5X            18.6613259854       10.6280777653      -10.2217990041  MEMB      74              0.0000000000
     10174        74  DOPC      H5Y            20.2276641945       10.3667035094       -9.3684755787  MEMB      74              0.0000000000
     10175        74  DOPC      C36            18.8026917958        8.7307441911       -9.2781762440  MEMB      74              0.0000000000
     10176        74  DOPC      H6X            17.9686245648        8.3642589344       -9.9204468508  MEMB      74              0.0000000000
     10177        74  DOPC      H6Y            19.5420363017        7.9174095822       -9.1003489215  MEMB      74              0.0000000000
     10178        74  DOPC      C37            18.1570009805        9.1284926544       -7.9583059999  MEMB      74              0.0000000000
     10179        74  DOPC      H7X            17.7985719020       10.1507874392       -8.1078428281  MEMB      74              0.0000000000
     10180        74  DOPC      H7Y            17.2667168771        8.4981776614       -7.7372298331  MEMB      74              0.0000000000
     10181        74  DOPC      C38            19.1409471403        9.0386035472       -6.8055366476  MEMB      74              0.0000000000
     10182        74  DOPC      H8X            20.0098884499        9.6904159145       -7.0337402916  MEMB      74              0.0000000000
     10183        74  DOPC      H8Y            19.5106932214        7.9908353204       -6.7471702207  MEMB      74              0.0000000000
     10184        74  DOPC      C39            18.5208970445        9.5148096448       -5.5334888828  MEMB      74              0.0000000000
     10185        74  DOPC      H9X            17.9192864549       10.4418587298       -5.6005726442  MEMB      74              0.0000000000
     10186        74  DOPC      C310           18.6843509820        8.9303985920       -4.3507804766  MEMB      74              0.0000000000
     10187        74  DOPC      H10X           18.2212504866        9.4057569060       -3.4759315376  MEMB      74              0.0000000000
     10188        74  DOPC      C311           19.4958214066        7.6942955266       -4.0585553937  MEMB      74              0.0000000000
     10189        74  DOPC      H11X           20.2061067777        7.8387047487       -3.2181696089  MEMB      74              0.0000000000
     10190        74  DOPC      H11Y           20.1040701824        7.3422049684       -4.9201963585  MEMB      74              0.0000000000
     10191        74  DOPC      C312           18.4672057460        6.6266556528       -3.6908581851  MEMB      74              0.0000000000
     10192        74  DOPC      H12X           18.9945509628        5.6668136239       -3.4970762086  MEMB      74              0.0000000000
     10193        74  DOPC      H12Y           17.7797131964        6.4714423474       -4.5503532659  MEMB      74              0.0000000000
     10194        74  DOPC      C313           17.6324803324        6.9768148062       -2.4536741856  MEMB      74              0.0000000000
     10195        74  DOPC      H13X           17.2521930193        8.0120146366       -2.4554322174  MEMB      74              0.0000000000
     10196        74  DOPC      H13Y           16.7097686237        6.3641100229       -2.4525288556  MEMB      74              0.0000000000
     10197        74  DOPC      C314           18.4456165750        6.7287476733       -1.1886547218  MEMB      74              0.0000000000
     10198        74  DOPC      H14X           18.9778480591        5.7783970376       -1.2938133601  MEMB      74              0.0000000000
     10199        74  DOPC      H14Y           19.2351842976        7.4992325554       -1.0796431583  MEMB      74              0.0000000000
     10200        74  DOPC      C315           17.5873941407        6.6161131297        0.0626079865  MEMB      74              0.0000000000
     10201        74  DOPC      H15X           17.2149389710        5.5684857773        0.1260830292  MEMB      74              0.0000000000
     10202        74  DOPC      H15Y           16.6991661971        7.2820112143       -0.0476638627  MEMB      74              0.0000000000
     10203        74  DOPC      C316           18.3205571350        7.0135454083        1.3529218039  MEMB      74              0.0000000000
     10204        74  DOPC      H16X           18.3791798859        8.1239087556        1.4011468684  MEMB      74              0.0000000000
     10205        74  DOPC      H16Y           17.7113634529        6.6515640730        2.1996700505  MEMB      74              0.0000000000
     10206        74  DOPC      C317           19.7283729784        6.4546857877        1.5689667680  MEMB      74              0.0000000000
     10207        74  DOPC      H17X           20.0570975816        5.8779900452        0.6896738034  MEMB      74              0.0000000000
     10208        74  DOPC      H17Y           20.4222086748        7.3129710385        1.6299752559  MEMB      74              0.0000000000
     10209        74  DOPC      C318           19.8729736150        5.6111430648        2.8388062296  MEMB      74              0.0000000000
     10210        74  DOPC      H18X           19.7844387349        6.2452575070        3.7459491168  MEMB      74              0.0000000000
     10211        74  DOPC      H18Y           19.0952289853        4.8200503844        2.8812241091  MEMB      74              0.0000000000
     10212        74  DOPC      H18Z           20.8667552253        5.1217240231        2.8561166188  MEMB      74              0.0000000000
     10213        75  DOPC      N               4.3197066326      -22.6907880895      -18.1092928517  MEMB      75              0.0000000000
     10214        75  DOPC      C12             4.2333463555      -23.4524717128      -19.4295475839  MEMB      75              0.0000000000
     10215        75  DOPC      H12A            4.2038555319      -24.5085979103      -19.2065981162  MEMB      75              0.0000000000
     10216        75  DOPC      H12B            5.1172436934      -23.2586527082      -20.0303736327  MEMB      75              0.0000000000
     10217        75  DOPC      C13             4.3017600120      -21.1999183615      -18.3519196229  MEMB      75              0.0000000000
     10218        75  DOPC      H13A            3.4475086868      -20.9070150506      -18.9637350179  MEMB      75              0.0000000000
     10219        75  DOPC      H13B            4.2875368222      -20.6500006471      -17.4150944436  MEMB      75              0.0000000000
     10220        75  DOPC      H13C            5.2081893053      -20.8810231696      -18.8707514692  MEMB      75              0.0000000000
     10221        75  DOPC      C14             5.5941925719      -23.0005586070      -17.3881674736  MEMB      75              0.0000000000
     10222        75  DOPC      H14A            6.4523914321      -22.7188833863      -17.9972055149  MEMB      75              0.0000000000
     10223        75  DOPC      H14B            5.6379749593      -22.4335685123      -16.4656868412  MEMB      75              0.0000000000
     10224        75  DOPC      H14C            5.6845719295      -24.0428755391      -17.1279041453  MEMB      75              0.0000000000
     10225        75  DOPC      C15             3.1507073767      -23.0590628444      -17.2546252095  MEMB      75              0.0000000000
     10226        75  DOPC      H15A            2.2798519400      -23.1323487920      -17.9156001298  MEMB      75              0.0000000000
     10227        75  DOPC      H15B            2.9020869251      -22.3138550928      -16.5130976471  MEMB      75              0.0000000000
     10228        75  DOPC      H15C            3.2549554062      -24.0331796506      -16.8008623212  MEMB      75              0.0000000000
     10229        75  DOPC      C11             2.9712350682      -23.2282988281      -20.2963478641  MEMB      75              0.0000000000
     10230        75  DOPC      H11A            2.8770926681      -22.1495701602      -20.5572454149  MEMB      75              0.0000000000
     10231        75  DOPC      H11B            3.0933876835      -23.8021403780      -21.2461581821  MEMB      75              0.0000000000
     10232        75  DOPC      P               0.5740228762      -24.3956617845      -20.1137642368  MEMB      75              0.0000000000
     10233        75  DOPC      O13             1.0201125492      -25.7548068624      -20.5009781606  MEMB      75              0.0000000000
     10234        75  DOPC      O14            -0.0013597650      -23.5476489045      -21.1840340407  MEMB      75              0.0000000000
     10235        75  DOPC      O12             1.8366094863      -23.6559559785      -19.5628916140  MEMB      75              0.0000000000
     10236        75  DOPC      O11            -0.3906797718      -24.5010413858      -18.8451068114  MEMB      75              0.0000000000
     10237        75  DOPC      C1              0.1200539601      -24.9324167820      -17.5725247035  MEMB      75              0.0000000000
     10238        75  DOPC      HA              0.5793993379      -24.0903731072      -17.0103938332  MEMB      75              0.0000000000
     10239        75  DOPC      HB              0.9291311372      -25.6886380966      -17.7358139053  MEMB      75              0.0000000000
     10240        75  DOPC      C2             -0.9443732195      -25.6187391632      -16.6299065917  MEMB      75              0.0000000000
     10241        75  DOPC      HS             -1.8873318415      -25.7719368099      -17.1988920629  MEMB      75              0.0000000000
     10242        75  DOPC      O21            -1.1679738287      -24.8384081852      -15.4091096028  MEMB      75              0.0000000000
     10243        75  DOPC      C21            -2.3978887648      -24.6281495549      -14.8685306739  MEMB      75              0.0000000000
     10244        75  DOPC      O22            -3.4607994495      -24.8294659334      -15.4201090745  MEMB      75              0.0000000000
     10245        75  DOPC      C22            -2.2037398558      -24.0598453891      -13.3974271792  MEMB      75              0.0000000000
     10246        75  DOPC      H2R            -1.9665272847      -22.9878070054      -13.5617312974  MEMB      75              0.0000000000
     10247        75  DOPC      H2S            -1.2945998492      -24.5443080753      -13.0198036220  MEMB      75              0.0000000000
     10248        75  DOPC      C3             -0.3177003447      -27.0350672973      -16.3162247679  MEMB      75              0.0000000000
     10249        75  DOPC      HX             -0.2983480042      -27.6368568796      -17.2517304215  MEMB      75              0.0000000000
     10250        75  DOPC      HY             -0.9737489797      -27.5689939274      -15.6249762200  MEMB      75              0.0000000000
     10251        75  DOPC      O31             1.0224722531      -26.8994409254      -15.7772985680  MEMB      75              0.0000000000
     10252        75  DOPC      C31             1.4853995096      -27.8695657671      -14.9871435540  MEMB      75              0.0000000000
     10253        75  DOPC      O32             0.9869695089      -28.9642319075      -14.8318567511  MEMB      75              0.0000000000
     10254        75  DOPC      C32             2.6655186857      -27.2701193572      -14.1888131249  MEMB      75              0.0000000000
     10255        75  DOPC      H2X             3.4893016184      -27.0633795624      -14.8936829527  MEMB      75              0.0000000000
     10256        75  DOPC      H2Y             2.3161092567      -26.2871444689      -13.8209953960  MEMB      75              0.0000000000
     10257        75  DOPC      C23            -3.3040061074      -24.0663425212      -12.2307633021  MEMB      75              0.0000000000
     10258        75  DOPC      H3R            -4.2830718878      -24.0140868661      -12.7435734027  MEMB      75              0.0000000000
     10259        75  DOPC      H3S            -3.1714464290      -23.1459525703      -11.6186681601  MEMB      75              0.0000000000
     10260        75  DOPC      C24            -3.3636544328      -25.2580387537      -11.2118901961  MEMB      75              0.0000000000
     10261        75  DOPC      H4R            -2.5399791374      -25.8977874880      -11.5272300581  MEMB      75              0.0000000000
     10262        75  DOPC      H4S            -4.3351891837      -25.7888839366      -11.2797890267  MEMB      75              0.0000000000
     10263        75  DOPC      C25            -2.9682988136      -25.2499968862       -9.7181142319  MEMB      75              0.0000000000
     10264        75  DOPC      H5R            -3.7548179451      -24.9006930536       -9.0305337174  MEMB      75              0.0000000000
     10265        75  DOPC      H5S            -2.1057125967      -24.5716195860       -9.5953001997  MEMB      75              0.0000000000
     10266        75  DOPC      C26            -2.6532000615      -26.7103680314       -9.2436269122  MEMB      75              0.0000000000
     10267        75  DOPC      H6R            -2.6943270575      -27.3994956796      -10.1129655353  MEMB      75              0.0000000000
     10268        75  DOPC      H6S            -3.4558118385      -27.0356704302       -8.5545849388  MEMB      75              0.0000000000
     10269        75  DOPC      C27            -1.2647275746      -26.7838585139       -8.5878168541  MEMB      75              0.0000000000
     10270        75  DOPC      H7R            -1.2568339716      -26.1436800555       -7.7123593402  MEMB      75              0.0000000000
     10271        75  DOPC      H7S            -0.6125084445      -26.2446758927       -9.2958522661  MEMB      75              0.0000000000
     10272        75  DOPC      C28            -0.5139707095      -28.0886306947       -8.2075128531  MEMB      75              0.0000000000
     10273        75  DOPC      H8R             0.5485916068      -27.7625111857       -8.1091533965  MEMB      75              0.0000000000
     10274        75  DOPC      H8S            -0.5463008922      -28.7690331836       -9.0774274347  MEMB      75              0.0000000000
     10275        75  DOPC      C29            -0.8263014049      -28.8849968905       -6.9658628283  MEMB      75              0.0000000000
     10276        75  DOPC      H9R            -1.7596036049      -29.4651262439       -7.0438702931  MEMB      75              0.0000000000
     10277        75  DOPC      C210           -0.1713131254      -28.9437503029       -5.7829947600  MEMB      75              0.0000000000
     10278        75  DOPC      H10R           -0.4315394338      -29.7755341428       -5.1324510513  MEMB      75              0.0000000000
     10279        75  DOPC      C211            1.0601321720      -28.2846572577       -5.2130798515  MEMB      75              0.0000000000
     10280        75  DOPC      H11R            1.2250032377      -27.2705344187       -5.6283647818  MEMB      75              0.0000000000
     10281        75  DOPC      H11S            1.9643814916      -28.8991818083       -5.4163763931  MEMB      75              0.0000000000
     10282        75  DOPC      C212            0.8453010778      -28.2481162312       -3.6740476459  MEMB      75              0.0000000000
     10283        75  DOPC      H12R            1.0245747280      -29.2636246629       -3.2546387425  MEMB      75              0.0000000000
     10284        75  DOPC      H12S           -0.2164058251      -27.9725792906       -3.4537860246  MEMB      75              0.0000000000
     10285        75  DOPC      C213            1.6617400125      -27.2323312720       -2.8616840528  MEMB      75              0.0000000000
     10286        75  DOPC      H13R            1.3009197694      -27.2626358147       -1.8048111903  MEMB      75              0.0000000000
     10287        75  DOPC      H13S            1.4171995479      -26.2269477817       -3.2543308996  MEMB      75              0.0000000000
     10288        75  DOPC      C214            3.1838306824      -27.4241033975       -2.8313691991  MEMB      75              0.0000000000
     10289        75  DOPC      H14R            3.5754990780      -27.5789601190       -3.8590959256  MEMB      75              0.0000000000
     10290        75  DOPC      H14S            3.4184811492      -28.3297008772       -2.2289090380  MEMB      75              0.0000000000
     10291        75  DOPC      C215            3.8533914738      -26.1831234356       -2.2156366674  MEMB      75              0.0000000000
     10292        75  DOPC      H15R            3.3658138755      -25.9623154994       -1.2412823885  MEMB      75              0.0000000000
     10293        75  DOPC      H15S            3.6385808060      -25.3154129155       -2.8783419423  MEMB      75              0.0000000000
     10294        75  DOPC      C216            5.3783337644      -26.2172227187       -2.0049988163  MEMB      75              0.0000000000
     10295        75  DOPC      H16R            5.5975191776      -25.5450718588       -1.1437909686  MEMB      75              0.0000000000
     10296        75  DOPC      H16S            5.8795333787      -25.7722919722       -2.8944670001  MEMB      75              0.0000000000
     10297        75  DOPC      C217            6.0127301392      -27.5785336286       -1.7197970871  MEMB      75              0.0000000000
     10298        75  DOPC      H17R            5.3590235216      -28.1844560019       -1.0558434062  MEMB      75              0.0000000000
     10299        75  DOPC      H17S            6.9539259864      -27.3951277377       -1.1502160875  MEMB      75              0.0000000000
     10300        75  DOPC      C218            6.3674739512      -28.3391982582       -3.0015756076  MEMB      75              0.0000000000
     10301        75  DOPC      H18R            7.2637036660      -28.9730778537       -2.8407397352  MEMB      75              0.0000000000
     10302        75  DOPC      H18S            6.5887022290      -27.6284481571       -3.8270435606  MEMB      75              0.0000000000
     10303        75  DOPC      H18T            5.5194818996      -28.9836113427       -3.3184148075  MEMB      75              0.0000000000
     10304        75  DOPC      C33             3.2038965458      -28.0638263873      -12.9522167998  MEMB      75              0.0000000000
     10305        75  DOPC      H3X             3.9847929613      -28.7814623112      -13.2935952539  MEMB      75              0.0000000000
     10306        75  DOPC      H3Y             2.3872102298      -28.6532516900      -12.4834740724  MEMB      75              0.0000000000
     10307        75  DOPC      C34             3.8070897507      -27.0981736916      -11.9051189159  MEMB      75              0.0000000000
     10308        75  DOPC      H4X             3.1133595828      -26.2588935887      -11.7380715714  MEMB      75              0.0000000000
     10309        75  DOPC      H4Y             4.7188520086      -26.6406770782      -12.3466080003  MEMB      75              0.0000000000
     10310        75  DOPC      C35             4.1764888150      -27.6719956130      -10.5210099873  MEMB      75              0.0000000000
     10311        75  DOPC      H5X             4.7103382139      -28.6378266987      -10.6608326301  MEMB      75              0.0000000000
     10312        75  DOPC      H5Y             3.2659994993      -27.8685996970       -9.9133266962  MEMB      75              0.0000000000
     10313        75  DOPC      C36             5.1101509582      -26.7067933643       -9.7571400950  MEMB      75              0.0000000000
     10314        75  DOPC      H6X             5.9414269013      -26.4397460592      -10.4512185117  MEMB      75              0.0000000000
     10315        75  DOPC      H6Y             4.5887690378      -25.7561262321       -9.5578181494  MEMB      75              0.0000000000
     10316        75  DOPC      C37             5.7585310446      -27.3088984884       -8.4938508636  MEMB      75              0.0000000000
     10317        75  DOPC      H7X             5.4082933051      -28.3555880903       -8.3562192588  MEMB      75              0.0000000000
     10318        75  DOPC      H7Y             6.8421060584      -27.3455122940       -8.7083370857  MEMB      75              0.0000000000
     10319        75  DOPC      C38             5.6799743007      -26.5614878745       -7.1469495444  MEMB      75              0.0000000000
     10320        75  DOPC      H8X             6.3665980187      -27.0837413181       -6.4398151558  MEMB      75              0.0000000000
     10321        75  DOPC      H8Y             4.6610582410      -26.7093043355       -6.7311284473  MEMB      75              0.0000000000
     10322        75  DOPC      C39             6.0778377317      -25.1068442283       -7.2086455181  MEMB      75              0.0000000000
     10323        75  DOPC      H9X             7.1579894867      -24.8885811672       -7.1765854778  MEMB      75              0.0000000000
     10324        75  DOPC      C310            5.2016154399      -24.0969993521       -7.3175196892  MEMB      75              0.0000000000
     10325        75  DOPC      H10X            5.5657002713      -23.0566104972       -7.3508803604  MEMB      75              0.0000000000
     10326        75  DOPC      C311            3.7089438877      -24.2916838709       -7.3961547491  MEMB      75              0.0000000000
     10327        75  DOPC      H11X            3.4422034306      -25.1603725563       -8.0381037378  MEMB      75              0.0000000000
     10328        75  DOPC      H11Y            3.2432682133      -23.4004794543       -7.8689538485  MEMB      75              0.0000000000
     10329        75  DOPC      C312            3.0404058803      -24.5658262589       -6.0394284563  MEMB      75              0.0000000000
     10330        75  DOPC      H12X            3.4928702562      -25.4399258098       -5.5253078430  MEMB      75              0.0000000000
     10331        75  DOPC      H12Y            1.9802013034      -24.8490656052       -6.2140019388  MEMB      75              0.0000000000
     10332        75  DOPC      C313            3.0977763405      -23.3468322918       -5.1272589075  MEMB      75              0.0000000000
     10333        75  DOPC      H13X            4.0868209667      -23.3398184911       -4.6189388948  MEMB      75              0.0000000000
     10334        75  DOPC      H13Y            3.0125710927      -22.4177080313       -5.7364072277  MEMB      75              0.0000000000
     10335        75  DOPC      C314            1.9752396039      -23.3358962263       -4.0924785543  MEMB      75              0.0000000000
     10336        75  DOPC      H14X            1.0258494872      -23.0970120956       -4.6200154072  MEMB      75              0.0000000000
     10337        75  DOPC      H14Y            1.8796125563      -24.3299044089       -3.6213780358  MEMB      75              0.0000000000
     10338        75  DOPC      C315            2.2336417942      -22.2860665160       -3.0193165884  MEMB      75              0.0000000000
     10339        75  DOPC      H15X            2.2854724430      -21.3389630516       -3.5829608943  MEMB      75              0.0000000000
     10340        75  DOPC      H15Y            3.2322551032      -22.4279617033       -2.5701854935  MEMB      75              0.0000000000
     10341        75  DOPC      C316            1.1799188425      -22.2428699620       -1.9043210179  MEMB      75              0.0000000000
     10342        75  DOPC      H16X            1.1258558850      -21.2076686557       -1.4979123067  MEMB      75              0.0000000000
     10343        75  DOPC      H16Y            0.1771239706      -22.4851103178       -2.3204109558  MEMB      75              0.0000000000
     10344        75  DOPC      C317            1.5025336033      -23.1900490870       -0.7367244407  MEMB      75              0.0000000000
     10345        75  DOPC      H17X            0.6694064519      -23.9220452084       -0.6417192452  MEMB      75              0.0000000000
     10346        75  DOPC      H17Y            2.4207497551      -23.7759181018       -0.9715342467  MEMB      75              0.0000000000
     10347        75  DOPC      C318            1.6994631051      -22.4839779416        0.6078053075  MEMB      75              0.0000000000
     10348        75  DOPC      H18X            0.8743692202      -21.7776625921        0.8244620351  MEMB      75              0.0000000000
     10349        75  DOPC      H18Y            1.7514700529      -23.2321299200        1.4305587199  MEMB      75              0.0000000000
     10350        75  DOPC      H18Z            2.6212783693      -21.8777764674        0.6193968357  MEMB      75              0.0000000000
     10351        76  DOPC      N              17.7223013523       16.1382244693      -20.9406966116  MEMB      76              0.0000000000
     10352        76  DOPC      C12            17.8794998002       16.8891239546      -19.6179326630  MEMB      76              0.0000000000
     10353        76  DOPC      H12A           17.0025924228       16.6835560129      -18.9963356572  MEMB      76              0.0000000000
     10354        76  DOPC      H12B           17.8725732571       17.9595791361      -19.7971921855  MEMB      76              0.0000000000
     10355        76  DOPC      C13            19.0564811349       15.9246083722      -21.6142104097  MEMB      76              0.0000000000
     10356        76  DOPC      H13A           19.7269122204       15.4064575043      -20.9264254899  MEMB      76              0.0000000000
     10357        76  DOPC      H13B           18.9582819364       15.3044809233      -22.4965520776  MEMB      76              0.0000000000
     10358        76  DOPC      H13C           19.5166070556       16.8754448710      -21.8768981373  MEMB      76              0.0000000000
     10359        76  DOPC      C14            16.8151305788       16.9386943933      -21.8235067767  MEMB      76              0.0000000000
     10360        76  DOPC      H14A           16.6574507865       16.4381168562      -22.7722277065  MEMB      76              0.0000000000
     10361        76  DOPC      H14B           15.8420134980       17.1028359915      -21.3670364672  MEMB      76              0.0000000000
     10362        76  DOPC      H14C           17.2282446591       17.9297789040      -22.0098880968  MEMB      76              0.0000000000
     10363        76  DOPC      C15            17.1708259615       14.7665620417      -20.6584794381  MEMB      76              0.0000000000
     10364        76  DOPC      H15A           16.1463635906       14.8004651733      -20.3189344079  MEMB      76              0.0000000000
     10365        76  DOPC      H15B           17.7609553975       14.3019089507      -19.8582845195  MEMB      76              0.0000000000
     10366        76  DOPC      H15C           17.2542221408       14.0999379079      -21.5032832578  MEMB      76              0.0000000000
     10367        76  DOPC      C11            19.0975766507       16.5224568882      -18.7465959112  MEMB      76              0.0000000000
     10368        76  DOPC      H11A           20.0458642343       16.7034774132      -19.2940456869  MEMB      76              0.0000000000
     10369        76  DOPC      H11B           19.1267448943       17.2071509455      -17.8606321091  MEMB      76              0.0000000000
     10370        76  DOPC      P              18.2297944398       14.7645897302      -17.0609954081  MEMB      76              0.0000000000
     10371        76  DOPC      O13            18.4633541597       13.3343644673      -16.8060250477  MEMB      76              0.0000000000
     10372        76  DOPC      O14            16.8350117386       15.2028779198      -17.2474562412  MEMB      76              0.0000000000
     10373        76  DOPC      O12            19.0124247060       15.1452645771      -18.3841875154  MEMB      76              0.0000000000
     10374        76  DOPC      O11            18.9744434886       15.6417509766      -16.0027846902  MEMB      76              0.0000000000
     10375        76  DOPC      C1             20.0549016317       15.2016001000      -15.1829074718  MEMB      76              0.0000000000
     10376        76  DOPC      HA             21.0179962619       15.4847519269      -15.6653317335  MEMB      76              0.0000000000
     10377        76  DOPC      HB             20.0631788337       14.1004865200      -15.0165450618  MEMB      76              0.0000000000
     10378        76  DOPC      C2             19.9440498279       15.9193065228      -13.8077283571  MEMB      76              0.0000000000
     10379        76  DOPC      HS             20.9058126597       15.8389773482      -13.2600281897  MEMB      76              0.0000000000
     10380        76  DOPC      O21            18.8295685255       15.2987295476      -13.0808215920  MEMB      76              0.0000000000
     10381        76  DOPC      C21            19.2387833046       14.1987286805      -12.3858098088  MEMB      76              0.0000000000
     10382        76  DOPC      O22            20.3933661497       13.9969298893      -12.0621517232  MEMB      76              0.0000000000
     10383        76  DOPC      C22            18.0726521128       13.2571931757      -12.0175951365  MEMB      76              0.0000000000
     10384        76  DOPC      H2R            18.3692834764       12.2362300636      -12.3311044989  MEMB      76              0.0000000000
     10385        76  DOPC      H2S            17.1750409953       13.5425077321      -12.6012511814  MEMB      76              0.0000000000
     10386        76  DOPC      C3             19.7652265941       17.4631174236      -14.1422592766  MEMB      76              0.0000000000
     10387        76  DOPC      HX             18.9692916085       17.5622107287      -14.9080278195  MEMB      76              0.0000000000
     10388        76  DOPC      HY             20.7343781705       17.7460286832      -14.6245428629  MEMB      76              0.0000000000
     10389        76  DOPC      O31            19.4989670992       18.3757602120      -13.0481342748  MEMB      76              0.0000000000
     10390        76  DOPC      C31            19.2710917585       19.6306171889      -13.4996263065  MEMB      76              0.0000000000
     10391        76  DOPC      O32            19.3874844969       19.9834571827      -14.6609690400  MEMB      76              0.0000000000
     10392        76  DOPC      C32            18.8367523916       20.5669456708      -12.3499439279  MEMB      76              0.0000000000
     10393        76  DOPC      H2X            19.7564149618       20.7805255394      -11.7616887132  MEMB      76              0.0000000000
     10394        76  DOPC      H2Y            18.4482768632       21.5037252634      -12.7821541295  MEMB      76              0.0000000000
     10395        76  DOPC      C23            17.8455620661       13.2159758456      -10.4792777771  MEMB      76              0.0000000000
     10396        76  DOPC      H3R            18.0793348848       14.2202477396      -10.0760294280  MEMB      76              0.0000000000
     10397        76  DOPC      H3S            18.6069591727       12.5830197078       -9.9893283586  MEMB      76              0.0000000000
     10398        76  DOPC      C24            16.4095051019       12.8872480668      -10.0035205098  MEMB      76              0.0000000000
     10399        76  DOPC      H4R            16.2598899908       11.7851642730       -9.9957311873  MEMB      76              0.0000000000
     10400        76  DOPC      H4S            15.6856713170       13.2963994551      -10.7423273728  MEMB      76              0.0000000000
     10401        76  DOPC      C25            16.1115496687       13.4583914115       -8.5858638754  MEMB      76              0.0000000000
     10402        76  DOPC      H5R            15.0346180758       13.3382475245       -8.3460105506  MEMB      76              0.0000000000
     10403        76  DOPC      H5S            16.3219258803       14.5428821530       -8.5780972866  MEMB      76              0.0000000000
     10404        76  DOPC      C26            17.1055252091       12.8715454364       -7.5608389720  MEMB      76              0.0000000000
     10405        76  DOPC      H6R            18.0829183010       13.3211051736       -7.8381817180  MEMB      76              0.0000000000
     10406        76  DOPC      H6S            17.0871266804       11.7896048730       -7.7150227305  MEMB      76              0.0000000000
     10407        76  DOPC      C27            16.9609517212       13.0139154073       -6.0357501877  MEMB      76              0.0000000000
     10408        76  DOPC      H7R            16.3645179052       12.1816636014       -5.5975162208  MEMB      76              0.0000000000
     10409        76  DOPC      H7S            16.3949071131       13.8931226471       -5.8475848046  MEMB      76              0.0000000000
     10410        76  DOPC      C28            18.2273642133       13.4079714574       -5.2390305535  MEMB      76              0.0000000000
     10411        76  DOPC      H8R            17.9821731157       13.2798496535       -4.1623341793  MEMB      76              0.0000000000
     10412        76  DOPC      H8S            18.4301027629       14.4975885456       -5.3619581636  MEMB      76              0.0000000000
     10413        76  DOPC      C29            19.4137342909       12.5785183304       -5.6286127769  MEMB      76              0.0000000000
     10414        76  DOPC      H9R            19.4978877583       11.6436345999       -5.0721447606  MEMB      76              0.0000000000
     10415        76  DOPC      C210           20.4200507962       12.9062047348       -6.4529992367  MEMB      76              0.0000000000
     10416        76  DOPC      H10R           21.1798125460       12.1452494072       -6.6793852911  MEMB      76              0.0000000000
     10417        76  DOPC      C211           20.5900286157       14.2102405490       -7.1791105123  MEMB      76              0.0000000000
     10418        76  DOPC      H11R           19.7922419498       14.9242680216       -6.8882323423  MEMB      76              0.0000000000
     10419        76  DOPC      H11S           20.5062549286       14.0769960607       -8.2813546579  MEMB      76              0.0000000000
     10420        76  DOPC      C212           21.9515338839       14.8622029044       -6.8608076268  MEMB      76              0.0000000000
     10421        76  DOPC      H12R           21.9041365754       15.9019590518       -7.2533742081  MEMB      76              0.0000000000
     10422        76  DOPC      H12S           22.7613127243       14.3218706375       -7.3985490678  MEMB      76              0.0000000000
     10423        76  DOPC      C213           22.2960523265       15.0059495572       -5.3675606672  MEMB      76              0.0000000000
     10424        76  DOPC      H13R           23.2653465271       15.5377062788       -5.2706964332  MEMB      76              0.0000000000
     10425        76  DOPC      H13S           22.4370544028       14.0057065088       -4.9171429316  MEMB      76              0.0000000000
     10426        76  DOPC      C214           21.1821118075       15.7492755014       -4.6231454591  MEMB      76              0.0000000000
     10427        76  DOPC      H14R           20.5875833818       15.0326741265       -4.0131276230  MEMB      76              0.0000000000
     10428        76  DOPC      H14S           20.4976172455       16.1429337369       -5.4110216766  MEMB      76              0.0000000000
     10429        76  DOPC      C215           21.5840557847       16.9871582447       -3.8069838217  MEMB      76              0.0000000000
     10430        76  DOPC      H15R           22.3918800402       17.5433577466       -4.3335579221  MEMB      76              0.0000000000
     10431        76  DOPC      H15S           21.9562428836       16.6858459073       -2.8045617388  MEMB      76              0.0000000000
     10432        76  DOPC      C216           20.3348397750       17.8703932539       -3.6630471382  MEMB      76              0.0000000000
     10433        76  DOPC      H16R           19.6118431434       17.3261537093       -3.0193162235  MEMB      76              0.0000000000
     10434        76  DOPC      H16S           19.8609923782       17.9603327892       -4.6581472395  MEMB      76              0.0000000000
     10435        76  DOPC      C217           20.5108029246       19.3052269623       -3.1646568642  MEMB      76              0.0000000000
     10436        76  DOPC      H17R           21.4605404511       19.3987070197       -2.6194785481  MEMB      76              0.0000000000
     10437        76  DOPC      H17S           19.6858028836       19.5382090059       -2.4645586340  MEMB      76              0.0000000000
     10438        76  DOPC      C218           20.4625070032       20.3366817921       -4.2803293181  MEMB      76              0.0000000000
     10439        76  DOPC      H18R           20.7527517969       21.3553912559       -3.9553535217  MEMB      76              0.0000000000
     10440        76  DOPC      H18S           19.4356977421       20.3911292256       -4.7104390710  MEMB      76              0.0000000000
     10441        76  DOPC      H18T           21.1802552930       20.0177033380       -5.0665556538  MEMB      76              0.0000000000
     10442        76  DOPC      C33            17.8310334856       19.8704780460      -11.3985862604  MEMB      76              0.0000000000
     10443        76  DOPC      H3X            18.5874163928       19.2748334059      -10.8521081863  MEMB      76              0.0000000000
     10444        76  DOPC      H3Y            17.1649503241       19.1945349591      -11.9659101915  MEMB      76              0.0000000000
     10445        76  DOPC      C34            17.0074041986       20.6175395749      -10.3062491565  MEMB      76              0.0000000000
     10446        76  DOPC      H4X            16.0105212792       20.9459491315      -10.6590069246  MEMB      76              0.0000000000
     10447        76  DOPC      H4Y            17.6217425563       21.5008132965      -10.0186227725  MEMB      76              0.0000000000
     10448        76  DOPC      C35            16.9552456200       19.9653968475       -8.9064853530  MEMB      76              0.0000000000
     10449        76  DOPC      H5X            17.1652176871       20.7124602870       -8.1349411114  MEMB      76              0.0000000000
     10450        76  DOPC      H5Y            17.8810322808       19.4003005148       -8.8964820456  MEMB      76              0.0000000000
     10451        76  DOPC      C36            15.8167746946       19.0276504251       -8.4395365736  MEMB      76              0.0000000000
     10452        76  DOPC      H6X            15.6284968625       18.2954027548       -9.2252924119  MEMB      76              0.0000000000
     10453        76  DOPC      H6Y            16.1785225995       18.4489061834       -7.5609318063  MEMB      76              0.0000000000
     10454        76  DOPC      C37            14.4613254912       19.6566163711       -8.0956778566  MEMB      76              0.0000000000
     10455        76  DOPC      H7X            14.4590918306       20.6404636883       -8.6072197219  MEMB      76              0.0000000000
     10456        76  DOPC      H7Y            13.6231110083       19.0806908655       -8.5062408763  MEMB      76              0.0000000000
     10457        76  DOPC      C38            14.2183527134       19.8950875050       -6.5920563951  MEMB      76              0.0000000000
     10458        76  DOPC      H8X            13.5485653644       20.7779668814       -6.4928610693  MEMB      76              0.0000000000
     10459        76  DOPC      H8Y            15.2363902869       20.2134614321       -6.3620220876  MEMB      76              0.0000000000
     10460        76  DOPC      C39            13.7690439221       18.9063300703       -5.5463023447  MEMB      76              0.0000000000
     10461        76  DOPC      H9X            12.6814924904       18.7720758973       -5.4875149642  MEMB      76              0.0000000000
     10462        76  DOPC      C310           14.5323201941       18.3179538773       -4.6053643999  MEMB      76              0.0000000000
     10463        76  DOPC      H10X           14.0413097624       17.6782090022       -3.8515617955  MEMB      76              0.0000000000
     10464        76  DOPC      C311           16.0139659787       18.5327564337       -4.4204719479  MEMB      76              0.0000000000
     10465        76  DOPC      H11X           16.2010044809       19.2595591466       -3.5961094622  MEMB      76              0.0000000000
     10466        76  DOPC      H11Y           16.4654280843       18.9634432044       -5.3382688136  MEMB      76              0.0000000000
     10467        76  DOPC      C312           16.8833799089       17.3245603198       -4.1006433834  MEMB      76              0.0000000000
     10468        76  DOPC      H12X           17.9128922336       17.6281638171       -4.3749369952  MEMB      76              0.0000000000
     10469        76  DOPC      H12Y           16.6814359633       16.4506006475       -4.7432685154  MEMB      76              0.0000000000
     10470        76  DOPC      C313           16.9130176232       17.0119032042       -2.6066953246  MEMB      76              0.0000000000
     10471        76  DOPC      H13X           17.4846994334       16.0721883252       -2.4924095919  MEMB      76              0.0000000000
     10472        76  DOPC      H13Y           17.4886215196       17.8287694567       -2.1135391252  MEMB      76              0.0000000000
     10473        76  DOPC      C314           15.5624994593       16.9500488195       -1.8789175871  MEMB      76              0.0000000000
     10474        76  DOPC      H14X           15.0639860867       17.9395504477       -1.9439330715  MEMB      76              0.0000000000
     10475        76  DOPC      H14Y           14.9106797245       16.1985125030       -2.3907642197  MEMB      76              0.0000000000
     10476        76  DOPC      C315           15.6614416272       16.6149486011       -0.3808241130  MEMB      76              0.0000000000
     10477        76  DOPC      H15X           16.0590617627       15.5999814820       -0.3209072898  MEMB      76              0.0000000000
     10478        76  DOPC      H15Y           14.6398740658       16.6046615760        0.0588358815  MEMB      76              0.0000000000
     10479        76  DOPC      C316           16.6144491093       17.4113980011        0.5367979310  MEMB      76              0.0000000000
     10480        76  DOPC      H16X           16.5445376354       18.5042359780        0.3808102498  MEMB      76              0.0000000000
     10481        76  DOPC      H16Y           16.2228300243       17.1723681181        1.5505940044  MEMB      76              0.0000000000
     10482        76  DOPC      C317           18.0626108896       16.8787828457        0.4842818690  MEMB      76              0.0000000000
     10483        76  DOPC      H17X           18.2140506878       16.0410996336        1.1896721800  MEMB      76              0.0000000000
     10484        76  DOPC      H17Y           18.1320779663       16.4349873940       -0.5149852259  MEMB      76              0.0000000000
     10485        76  DOPC      C318           19.2475844916       17.8411715376        0.5453024525  MEMB      76              0.0000000000
     10486        76  DOPC      H18X           20.1633003845       17.3152506360        0.1878156418  MEMB      76              0.0000000000
     10487        76  DOPC      H18Y           19.0534415129       18.6749447038       -0.1511014770  MEMB      76              0.0000000000
     10488        76  DOPC      H18Z           19.4516808378       18.2295583803        1.5630311095  MEMB      76              0.0000000000
     10489        77  DOPC      N             -23.5675188141       -1.9381414784      -18.1761773451  MEMB      77              0.0000000000
     10490        77  DOPC      C12           -22.9920080378       -0.5381644071      -18.2976315791  MEMB      77              0.0000000000
     10491        77  DOPC      H12A          -22.1957120357       -0.5698433266      -19.0364409691  MEMB      77              0.0000000000
     10492        77  DOPC      H12B          -22.5440859065       -0.2610234663      -17.3509021523  MEMB      77              0.0000000000
     10493        77  DOPC      C13           -24.0134776794       -2.3936421988      -19.5376891596  MEMB      77              0.0000000000
     10494        77  DOPC      H13A          -23.1782146062       -2.6407263674      -20.1796614829  MEMB      77              0.0000000000
     10495        77  DOPC      H13B          -24.7172997788       -3.2043125630      -19.4638101171  MEMB      77              0.0000000000
     10496        77  DOPC      H13C          -24.5091340162       -1.5587754941      -20.0400191571  MEMB      77              0.0000000000
     10497        77  DOPC      C14           -24.7692100341       -1.9604213924      -17.2927684173  MEMB      77              0.0000000000
     10498        77  DOPC      H14A          -24.5856559637       -1.5979280191      -16.2869929198  MEMB      77              0.0000000000
     10499        77  DOPC      H14B          -25.5435986686       -1.3336930815      -17.7265982052  MEMB      77              0.0000000000
     10500        77  DOPC      H14C          -25.1704886025       -2.9640236669      -17.1968358520  MEMB      77              0.0000000000
     10501        77  DOPC      C15           -22.5419161341       -2.8714354771      -17.6110351701  MEMB      77              0.0000000000
     10502        77  DOPC      H15A          -22.2903766879       -2.5666923626      -16.6000909928  MEMB      77              0.0000000000
     10503        77  DOPC      H15B          -21.6269216344       -2.9021423914      -18.1954307389  MEMB      77              0.0000000000
     10504        77  DOPC      H15C          -22.9632353566       -3.8648721793      -17.5524400684  MEMB      77              0.0000000000
     10505        77  DOPC      C11           -23.9734084494        0.5851978910      -18.7293432738  MEMB      77              0.0000000000
     10506        77  DOPC      H11A          -24.7331024556        0.7154575124      -17.9221446335  MEMB      77              0.0000000000
     10507        77  DOPC      H11B          -23.3990035458        1.5361634778      -18.7818369289  MEMB      77              0.0000000000
     10508        77  DOPC      P             -26.0510505402        0.5764560913      -20.4012232253  MEMB      77              0.0000000000
     10509        77  DOPC      O13           -26.5329485911       -0.4860181329      -21.3087133760  MEMB      77              0.0000000000
     10510        77  DOPC      O14           -26.1026986122        1.9510465300      -20.9278057254  MEMB      77              0.0000000000
     10511        77  DOPC      O12           -24.5425795106        0.3078803657      -20.0101554207  MEMB      77              0.0000000000
     10512        77  DOPC      O11           -26.7721872151        0.4397699900      -19.0225358321  MEMB      77              0.0000000000
     10513        77  DOPC      C1            -27.6399152512        1.4602178047      -18.5552128873  MEMB      77              0.0000000000
     10514        77  DOPC      HA            -28.5731117626        1.4543740075      -19.1631310905  MEMB      77              0.0000000000
     10515        77  DOPC      HB            -27.1843903011        2.4731664433      -18.6334843746  MEMB      77              0.0000000000
     10516        77  DOPC      C2            -27.9962362340        1.1239949295      -17.0943203499  MEMB      77              0.0000000000
     10517        77  DOPC      HS            -29.0116968442        1.5216471897      -16.8672459631  MEMB      77              0.0000000000
     10518        77  DOPC      O21           -27.0138957217        1.6342775063      -16.1721281624  MEMB      77              0.0000000000
     10519        77  DOPC      C21           -27.2414220024        2.8805138530      -15.7992109705  MEMB      77              0.0000000000
     10520        77  DOPC      O22           -28.0837413054        3.6124801637      -16.2882864283  MEMB      77              0.0000000000
     10521        77  DOPC      C22           -26.4469109055        3.1606668857      -14.5365039061  MEMB      77              0.0000000000
     10522        77  DOPC      H2R           -26.1648114283        4.2314682277      -14.5242642873  MEMB      77              0.0000000000
     10523        77  DOPC      H2S           -25.5301557975        2.5356970940      -14.5598935866  MEMB      77              0.0000000000
     10524        77  DOPC      C3            -28.0604201869       -0.4129896148      -16.9396622071  MEMB      77              0.0000000000
     10525        77  DOPC      HX            -27.0310417843       -0.7944396542      -17.0573307161  MEMB      77              0.0000000000
     10526        77  DOPC      HY            -28.6135452369       -0.8486238195      -17.7923101950  MEMB      77              0.0000000000
     10527        77  DOPC      O31           -28.6817899974       -0.8001957044      -15.7023658375  MEMB      77              0.0000000000
     10528        77  DOPC      C31           -27.8064902391       -1.1191431825      -14.7380797274  MEMB      77              0.0000000000
     10529        77  DOPC      O32           -26.5958287633       -1.1502396380      -14.8695178321  MEMB      77              0.0000000000
     10530        77  DOPC      C32           -28.5624716008       -1.3695492111      -13.4315175238  MEMB      77              0.0000000000
     10531        77  DOPC      H2X           -29.3341316107       -0.5824656185      -13.3078044792  MEMB      77              0.0000000000
     10532        77  DOPC      H2Y           -29.0713186867       -2.3491175458      -13.5241073143  MEMB      77              0.0000000000
     10533        77  DOPC      C23           -27.3160243605        2.8137727754      -13.3069651701  MEMB      77              0.0000000000
     10534        77  DOPC      H3R           -27.9648922426        1.9329021084      -13.5239563138  MEMB      77              0.0000000000
     10535        77  DOPC      H3S           -27.9906566784        3.6679102728      -13.0698799564  MEMB      77              0.0000000000
     10536        77  DOPC      C24           -26.5048908992        2.4407954032      -12.0644484630  MEMB      77              0.0000000000
     10537        77  DOPC      H4R           -25.8150135100        3.2729151040      -11.7996551977  MEMB      77              0.0000000000
     10538        77  DOPC      H4S           -25.8875446528        1.5393968251      -12.2864137299  MEMB      77              0.0000000000
     10539        77  DOPC      C25           -27.4364306552        2.1514748252      -10.8817846436  MEMB      77              0.0000000000
     10540        77  DOPC      H5R           -28.1292814105        1.3213760190      -11.1418669754  MEMB      77              0.0000000000
     10541        77  DOPC      H5S           -28.0717568000        3.0447659805      -10.6849640795  MEMB      77              0.0000000000
     10542        77  DOPC      C26           -26.6902332248        1.7768145331       -9.6030559642  MEMB      77              0.0000000000
     10543        77  DOPC      H6R           -26.0480129910        2.6343259308       -9.2974710449  MEMB      77              0.0000000000
     10544        77  DOPC      H6S           -26.0218619721        0.9082052903       -9.7969844723  MEMB      77              0.0000000000
     10545        77  DOPC      C27           -27.6847256064        1.4324285226       -8.4859138722  MEMB      77              0.0000000000
     10546        77  DOPC      H7R           -28.4459761622        0.7137719656       -8.8613603330  MEMB      77              0.0000000000
     10547        77  DOPC      H7S           -28.2636361597        2.3329988020       -8.2325639176  MEMB      77              0.0000000000
     10548        77  DOPC      C28           -27.0483545143        0.8565009281       -7.2134482445  MEMB      77              0.0000000000
     10549        77  DOPC      H8R           -26.7687718654       -0.2051034259       -7.3843139544  MEMB      77              0.0000000000
     10550        77  DOPC      H8S           -27.8562396020        0.8423959499       -6.4545195080  MEMB      77              0.0000000000
     10551        77  DOPC      C29           -25.8359412261        1.6198881934       -6.7447822497  MEMB      77              0.0000000000
     10552        77  DOPC      H9R           -24.9039751877        1.3615581131       -7.2713257761  MEMB      77              0.0000000000
     10553        77  DOPC      C210          -25.7983749428        2.5690295687       -5.7932742972  MEMB      77              0.0000000000
     10554        77  DOPC      H10R          -24.8353011066        3.0509381125       -5.5696394534  MEMB      77              0.0000000000
     10555        77  DOPC      C211          -26.9691566861        3.0775331386       -4.9896659803  MEMB      77              0.0000000000
     10556        77  DOPC      H11R          -27.9265839102        2.9122780941       -5.5300984707  MEMB      77              0.0000000000
     10557        77  DOPC      H11S          -26.8734157330        4.1798416748       -4.8639091751  MEMB      77              0.0000000000
     10558        77  DOPC      C212          -27.1000831012        2.4375841023       -3.5895166441  MEMB      77              0.0000000000
     10559        77  DOPC      H12R          -27.8858196069        2.9874253436       -3.0320098605  MEMB      77              0.0000000000
     10560        77  DOPC      H12S          -26.1657823400        2.6012888101       -3.0177941211  MEMB      77              0.0000000000
     10561        77  DOPC      C213          -27.4655625811        0.9370944813       -3.6161587401  MEMB      77              0.0000000000
     10562        77  DOPC      H13R          -26.5300826954        0.3514775371       -3.7061805783  MEMB      77              0.0000000000
     10563        77  DOPC      H13S          -28.0714375873        0.7125624019       -4.5145704323  MEMB      77              0.0000000000
     10564        77  DOPC      C214          -28.2831974172        0.4400094199       -2.4108862164  MEMB      77              0.0000000000
     10565        77  DOPC      H14R          -29.3619597172        0.3922077549       -2.6801756978  MEMB      77              0.0000000000
     10566        77  DOPC      H14S          -28.1633840643        1.1795803676       -1.5888448543  MEMB      77              0.0000000000
     10567        77  DOPC      C215          -27.8287270125       -0.9267328433       -1.8680206939  MEMB      77              0.0000000000
     10568        77  DOPC      H15R          -28.0192656273       -0.9389168952       -0.7729721889  MEMB      77              0.0000000000
     10569        77  DOPC      H15S          -26.7388282095       -1.0001904431       -2.0375904580  MEMB      77              0.0000000000
     10570        77  DOPC      C216          -28.5409137567       -2.1324451854       -2.4996809224  MEMB      77              0.0000000000
     10571        77  DOPC      H16R          -28.1878525197       -2.2335146619       -3.5379622429  MEMB      77              0.0000000000
     10572        77  DOPC      H16S          -29.6241243610       -1.9054698444       -2.5323682344  MEMB      77              0.0000000000
     10573        77  DOPC      C217          -28.4105558084       -3.4947413935       -1.8040191867  MEMB      77              0.0000000000
     10574        77  DOPC      H17R          -27.3432092424       -3.7658094601       -1.6478730011  MEMB      77              0.0000000000
     10575        77  DOPC      H17S          -28.8300606064       -4.2599202671       -2.5049898067  MEMB      77              0.0000000000
     10576        77  DOPC      C218          -29.2065186856       -3.5793550976       -0.4978141738  MEMB      77              0.0000000000
     10577        77  DOPC      H18R          -28.5663755304       -3.7992811189        0.3807888992  MEMB      77              0.0000000000
     10578        77  DOPC      H18S          -29.9871801297       -4.3724772289       -0.5653591041  MEMB      77              0.0000000000
     10579        77  DOPC      H18T          -29.7116065020       -2.6265700007       -0.3031293763  MEMB      77              0.0000000000
     10580        77  DOPC      C33           -27.6456747189       -1.3796057130      -12.1815320894  MEMB      77              0.0000000000
     10581        77  DOPC      H3X           -27.2961327156       -0.3496787790      -11.9708212178  MEMB      77              0.0000000000
     10582        77  DOPC      H3Y           -26.7342401112       -1.9928358308      -12.3583903683  MEMB      77              0.0000000000
     10583        77  DOPC      C34           -28.3813887714       -1.9287379820      -10.9510446513  MEMB      77              0.0000000000
     10584        77  DOPC      H4X           -28.6356681255       -2.9850495451      -11.1385700170  MEMB      77              0.0000000000
     10585        77  DOPC      H4Y           -29.3404188449       -1.3770362629      -10.8245147377  MEMB      77              0.0000000000
     10586        77  DOPC      C35           -27.5950769833       -1.8739345572       -9.6355695383  MEMB      77              0.0000000000
     10587        77  DOPC      H5X           -28.2776195081       -2.1427854821       -8.7993975551  MEMB      77              0.0000000000
     10588        77  DOPC      H5Y           -27.2737411154       -0.8338059153       -9.4786062942  MEMB      77              0.0000000000
     10589        77  DOPC      C36           -26.3173195598       -2.7251943245       -9.5877332922  MEMB      77              0.0000000000
     10590        77  DOPC      H6X           -25.6706294215       -2.4341281419      -10.4441352021  MEMB      77              0.0000000000
     10591        77  DOPC      H6Y           -25.7576025089       -2.4793521376       -8.6569844006  MEMB      77              0.0000000000
     10592        77  DOPC      C37           -26.5750879119       -4.2347418769       -9.6258873800  MEMB      77              0.0000000000
     10593        77  DOPC      H7X           -27.2151114540       -4.4547037056      -10.5063288877  MEMB      77              0.0000000000
     10594        77  DOPC      H7Y           -25.6159917855       -4.7708968868       -9.8017273131  MEMB      77              0.0000000000
     10595        77  DOPC      C38           -27.2740191567       -4.7659006583       -8.3600518969  MEMB      77              0.0000000000
     10596        77  DOPC      H8X           -27.8694273260       -5.6546905709       -8.6556276523  MEMB      77              0.0000000000
     10597        77  DOPC      H8Y           -28.0168054580       -4.0292519369       -7.9927792623  MEMB      77              0.0000000000
     10598        77  DOPC      C39           -26.3039616648       -5.1817099860       -7.2865974245  MEMB      77              0.0000000000
     10599        77  DOPC      H9X           -25.5651238166       -5.9304735860       -7.6071754013  MEMB      77              0.0000000000
     10600        77  DOPC      C310          -26.2273037104       -4.7274242083       -6.0296683666  MEMB      77              0.0000000000
     10601        77  DOPC      H10X          -25.4769749445       -5.1724040244       -5.3584055589  MEMB      77              0.0000000000
     10602        77  DOPC      C311          -27.0927447567       -3.6814098650       -5.3865354387  MEMB      77              0.0000000000
     10603        77  DOPC      H11X          -27.3553270022       -4.0086109949       -4.3584765275  MEMB      77              0.0000000000
     10604        77  DOPC      H11Y          -28.0504143792       -3.5155381865       -5.9282633497  MEMB      77              0.0000000000
     10605        77  DOPC      C312          -26.3031310491       -2.3596819136       -5.3354266979  MEMB      77              0.0000000000
     10606        77  DOPC      H12X          -26.9554584202       -1.5310245547       -4.9823567254  MEMB      77              0.0000000000
     10607        77  DOPC      H12Y          -25.9764954490       -2.0726708515       -6.3573201587  MEMB      77              0.0000000000
     10608        77  DOPC      C313          -25.0907786496       -2.4285378457       -4.3963122840  MEMB      77              0.0000000000
     10609        77  DOPC      H13X          -25.4720087975       -2.5096659844       -3.3553619970  MEMB      77              0.0000000000
     10610        77  DOPC      H13Y          -24.4897243354       -3.3423181527       -4.5912661987  MEMB      77              0.0000000000
     10611        77  DOPC      C314          -24.1557387748       -1.2210548693       -4.5488924281  MEMB      77              0.0000000000
     10612        77  DOPC      H14X          -23.6082124146       -1.3324568700       -5.5117325496  MEMB      77              0.0000000000
     10613        77  DOPC      H14Y          -24.7505544395       -0.2867889105       -4.6244159281  MEMB      77              0.0000000000
     10614        77  DOPC      C315          -23.1565635476       -1.1149578046       -3.3884743159  MEMB      77              0.0000000000
     10615        77  DOPC      H15X          -22.3370865540       -0.4100553269       -3.6490449648  MEMB      77              0.0000000000
     10616        77  DOPC      H15Y          -22.7111586520       -2.1221674309       -3.2182096629  MEMB      77              0.0000000000
     10617        77  DOPC      C316          -23.7987078971       -0.6275582732       -2.0831268263  MEMB      77              0.0000000000
     10618        77  DOPC      H16X          -24.7496882657       -1.1596645472       -1.9137099741  MEMB      77              0.0000000000
     10619        77  DOPC      H16Y          -23.1372614048       -0.8999721383       -1.2388612344  MEMB      77              0.0000000000
     10620        77  DOPC      C317          -24.0710033765        0.8818081806       -2.0718724943  MEMB      77              0.0000000000
     10621        77  DOPC      H17X          -23.1190874502        1.4237311054       -2.2667631253  MEMB      77              0.0000000000
     10622        77  DOPC      H17Y          -24.7359989567        1.1094429359       -2.9271201607  MEMB      77              0.0000000000
     10623        77  DOPC      C318          -24.7822436264        1.3836887575       -0.8060216135  MEMB      77              0.0000000000
     10624        77  DOPC      H18X          -24.8301422768        0.5870918871       -0.0305368304  MEMB      77              0.0000000000
     10625        77  DOPC      H18Y          -24.3141280190        2.2784510497       -0.3728572453  MEMB      77              0.0000000000
     10626        77  DOPC      H18Z          -25.7897132735        1.7658497907       -1.0413190207  MEMB      77              0.0000000000
     10627        78  DOPC      N              -6.1320165423      -22.7178253251      -17.8636704955  MEMB      78              0.0000000000
     10628        78  DOPC      C12            -7.1433040332      -22.9457373430      -18.9898752623  MEMB      78              0.0000000000
     10629        78  DOPC      H12A           -7.5759281800      -22.0001408293      -19.2755709664  MEMB      78              0.0000000000
     10630        78  DOPC      H12B           -7.9269757215      -23.5772176660      -18.5880139319  MEMB      78              0.0000000000
     10631        78  DOPC      C13            -5.8395523433      -24.0744120123      -17.2898698377  MEMB      78              0.0000000000
     10632        78  DOPC      H13A           -4.9971153929      -24.0914674403      -16.6104848751  MEMB      78              0.0000000000
     10633        78  DOPC      H13B           -6.7032719702      -24.5226475461      -16.8133877122  MEMB      78              0.0000000000
     10634        78  DOPC      H13C           -5.5792545605      -24.7550106907      -18.1058321226  MEMB      78              0.0000000000
     10635        78  DOPC      C14            -6.6443401924      -21.8597393376      -16.7521316841  MEMB      78              0.0000000000
     10636        78  DOPC      H14A           -6.6310833127      -20.8127657135      -17.0098052462  MEMB      78              0.0000000000
     10637        78  DOPC      H14B           -7.6439406317      -22.1667783191      -16.4640004018  MEMB      78              0.0000000000
     10638        78  DOPC      H14C           -6.0202427993      -22.0192478362      -15.8735465039  MEMB      78              0.0000000000
     10639        78  DOPC      C15            -4.8608741804      -22.1588940089      -18.4143308063  MEMB      78              0.0000000000
     10640        78  DOPC      H15A           -4.0811769481      -22.1284680707      -17.6624664501  MEMB      78              0.0000000000
     10641        78  DOPC      H15B           -4.9698451716      -21.1762804449      -18.8506220220  MEMB      78              0.0000000000
     10642        78  DOPC      H15C           -4.5270022878      -22.8376427334      -19.2061052890  MEMB      78              0.0000000000
     10643        78  DOPC      C11            -6.7083231907      -23.6454776644      -20.3296033379  MEMB      78              0.0000000000
     10644        78  DOPC      H11A           -7.6433422717      -23.9288494236      -20.8701955781  MEMB      78              0.0000000000
     10645        78  DOPC      H11B           -6.2054412396      -22.8952490003      -20.9791529031  MEMB      78              0.0000000000
     10646        78  DOPC      P              -6.3086586976      -26.2726553190      -20.0965726066  MEMB      78              0.0000000000
     10647        78  DOPC      O13            -5.5824090966      -27.0718658283      -21.1091664419  MEMB      78              0.0000000000
     10648        78  DOPC      O14            -7.7876382685      -26.3391722919      -20.1183707528  MEMB      78              0.0000000000
     10649        78  DOPC      O12            -5.8379019446      -24.7648157027      -20.1861526140  MEMB      78              0.0000000000
     10650        78  DOPC      O11            -5.8035392105      -26.6762123061      -18.6492475541  MEMB      78              0.0000000000
     10651        78  DOPC      C1             -5.9835141621      -28.0263688540      -18.1950409371  MEMB      78              0.0000000000
     10652        78  DOPC      HA             -5.3664679179      -28.7274757705      -18.8039329953  MEMB      78              0.0000000000
     10653        78  DOPC      HB             -7.0524561622      -28.3342034988      -18.2818404813  MEMB      78              0.0000000000
     10654        78  DOPC      C2             -5.5965779350      -28.1813621089      -16.6902905676  MEMB      78              0.0000000000
     10655        78  DOPC      HS             -5.6844848524      -29.2570170262      -16.4144487864  MEMB      78              0.0000000000
     10656        78  DOPC      O21            -6.5169663316      -27.3789803679      -15.9258109388  MEMB      78              0.0000000000
     10657        78  DOPC      C21            -6.7171983231      -27.7144963486      -14.6649255875  MEMB      78              0.0000000000
     10658        78  DOPC      O22            -6.2872243742      -28.7069910694      -14.1031419643  MEMB      78              0.0000000000
     10659        78  DOPC      C22            -7.5852780760      -26.6175060601      -14.0298989316  MEMB      78              0.0000000000
     10660        78  DOPC      H2R            -8.3966352650      -27.1147210851      -13.4642394109  MEMB      78              0.0000000000
     10661        78  DOPC      H2S            -8.0586240596      -26.0220528025      -14.8404310938  MEMB      78              0.0000000000
     10662        78  DOPC      C3             -4.1188581024      -27.7449988955      -16.4480107829  MEMB      78              0.0000000000
     10663        78  DOPC      HX             -3.9828367709      -26.7869484236      -17.0003582647  MEMB      78              0.0000000000
     10664        78  DOPC      HY             -3.4234658681      -28.4765382033      -16.9219595893  MEMB      78              0.0000000000
     10665        78  DOPC      O31            -3.8355439093      -27.4864490267      -15.0583226067  MEMB      78              0.0000000000
     10666        78  DOPC      C31            -2.9438431460      -28.2491389947      -14.4280689320  MEMB      78              0.0000000000
     10667        78  DOPC      O32            -2.4576820598      -29.2726097155      -14.8533467950  MEMB      78              0.0000000000
     10668        78  DOPC      C32            -2.4534615041      -27.4994063633      -13.1746775556  MEMB      78              0.0000000000
     10669        78  DOPC      H2X            -2.9908421673      -26.5437916004      -13.2473484234  MEMB      78              0.0000000000
     10670        78  DOPC      H2Y            -2.8304531643      -28.0603323624      -12.2990089499  MEMB      78              0.0000000000
     10671        78  DOPC      C23            -6.7448512598      -25.6783133016      -13.1238333745  MEMB      78              0.0000000000
     10672        78  DOPC      H3R            -5.7623569986      -25.4894710046      -13.6154853633  MEMB      78              0.0000000000
     10673        78  DOPC      H3S            -6.5437219148      -26.2298684589      -12.1823536214  MEMB      78              0.0000000000
     10674        78  DOPC      C24            -7.4217648241      -24.3114332526      -12.8688441219  MEMB      78              0.0000000000
     10675        78  DOPC      H4R            -8.4775396768      -24.4781115000      -12.5941390954  MEMB      78              0.0000000000
     10676        78  DOPC      H4S            -7.4066892638      -23.7322479146      -13.8180264445  MEMB      78              0.0000000000
     10677        78  DOPC      C25            -6.8601292450      -23.4282025955      -11.7385681809  MEMB      78              0.0000000000
     10678        78  DOPC      H5R            -7.5097515967      -22.5313755310      -11.6203584416  MEMB      78              0.0000000000
     10679        78  DOPC      H5S            -5.8592384566      -23.0452607539      -12.0131284935  MEMB      78              0.0000000000
     10680        78  DOPC      C26            -6.7932221217      -24.1148809398      -10.3718428383  MEMB      78              0.0000000000
     10681        78  DOPC      H6R            -6.4848525206      -25.1768286765      -10.4920748440  MEMB      78              0.0000000000
     10682        78  DOPC      H6S            -7.7820085981      -24.1157415684       -9.8720189245  MEMB      78              0.0000000000
     10683        78  DOPC      C27            -5.7589606888      -23.4774423789       -9.4480539454  MEMB      78              0.0000000000
     10684        78  DOPC      H7R            -4.8138561955      -23.3445894199      -10.0191438375  MEMB      78              0.0000000000
     10685        78  DOPC      H7S            -5.5908640723      -24.2262984444       -8.6415635240  MEMB      78              0.0000000000
     10686        78  DOPC      C28            -6.1340175572      -22.1374450090       -8.8126833561  MEMB      78              0.0000000000
     10687        78  DOPC      H8R            -7.0866000052      -22.2527763557       -8.2501242494  MEMB      78              0.0000000000
     10688        78  DOPC      H8S            -6.2951412902      -21.3769737204       -9.6081658009  MEMB      78              0.0000000000
     10689        78  DOPC      C29            -5.0070071406      -21.7248962748       -7.9018434969  MEMB      78              0.0000000000
     10690        78  DOPC      H9R            -4.3083268699      -20.9794899123       -8.3095543925  MEMB      78              0.0000000000
     10691        78  DOPC      C210           -4.7666090382      -22.2426390638       -6.6871075328  MEMB      78              0.0000000000
     10692        78  DOPC      H10R           -3.9173467853      -21.8627810575       -6.1043993088  MEMB      78              0.0000000000
     10693        78  DOPC      C211           -5.5543737250      -23.3203347858       -5.9903288645  MEMB      78              0.0000000000
     10694        78  DOPC      H11R           -4.8508732442      -23.9443318393       -5.4049137346  MEMB      78              0.0000000000
     10695        78  DOPC      H11S           -6.0708810051      -24.0153914463       -6.6873822916  MEMB      78              0.0000000000
     10696        78  DOPC      C212           -6.6217637522      -22.6953685836       -5.0803943946  MEMB      78              0.0000000000
     10697        78  DOPC      H12R           -7.4206437158      -22.2729668531       -5.7339476787  MEMB      78              0.0000000000
     10698        78  DOPC      H12S           -6.1920285400      -21.8514397099       -4.4981248427  MEMB      78              0.0000000000
     10699        78  DOPC      C213           -7.2870148496      -23.6682556407       -4.0943707039  MEMB      78              0.0000000000
     10700        78  DOPC      H13R           -7.7294664943      -24.5242425503       -4.6549448508  MEMB      78              0.0000000000
     10701        78  DOPC      H13S           -8.1285328929      -23.1211598003       -3.6113152189  MEMB      78              0.0000000000
     10702        78  DOPC      C214           -6.3914785483      -24.2214893493       -2.9728503825  MEMB      78              0.0000000000
     10703        78  DOPC      H14R           -6.0823583349      -25.2378515338       -3.2379981264  MEMB      78              0.0000000000
     10704        78  DOPC      H14S           -7.0074182408      -24.3288047817       -2.0531480230  MEMB      78              0.0000000000
     10705        78  DOPC      C215           -5.1135587190      -23.4482600205       -2.6373547372  MEMB      78              0.0000000000
     10706        78  DOPC      H15R           -5.4193093218      -22.4167175740       -2.3463347492  MEMB      78              0.0000000000
     10707        78  DOPC      H15S           -4.4162880154      -23.3624304902       -3.4932397799  MEMB      78              0.0000000000
     10708        78  DOPC      C216           -4.3625899228      -24.0849055811       -1.4639028899  MEMB      78              0.0000000000
     10709        78  DOPC      H16R           -5.0864641680      -24.5825654556       -0.7816422256  MEMB      78              0.0000000000
     10710        78  DOPC      H16S           -3.8923011257      -23.2220247417       -0.9626597861  MEMB      78              0.0000000000
     10711        78  DOPC      C217           -3.1919105567      -25.0259536867       -1.7666257120  MEMB      78              0.0000000000
     10712        78  DOPC      H17R           -2.4191215437      -24.4399950016       -2.3154917893  MEMB      78              0.0000000000
     10713        78  DOPC      H17S           -3.5566655639      -25.8457775854       -2.4247655977  MEMB      78              0.0000000000
     10714        78  DOPC      C218           -2.5189447635      -25.6440826625       -0.5323312717  MEMB      78              0.0000000000
     10715        78  DOPC      H18R           -2.2273373190      -24.9033673902        0.2239938545  MEMB      78              0.0000000000
     10716        78  DOPC      H18S           -1.6007818348      -26.1943621285       -0.8361860264  MEMB      78              0.0000000000
     10717        78  DOPC      H18T           -3.2107862394      -26.3464006326       -0.0219678678  MEMB      78              0.0000000000
     10718        78  DOPC      C33            -0.8992969428      -27.2345970549      -13.0657955165  MEMB      78              0.0000000000
     10719        78  DOPC      H3X            -0.5508529258      -26.5446100664      -13.8470548660  MEMB      78              0.0000000000
     10720        78  DOPC      H3Y            -0.5029358525      -28.2612166843      -13.2478482027  MEMB      78              0.0000000000
     10721        78  DOPC      C34            -0.1861984568      -26.8099854418      -11.7429227369  MEMB      78              0.0000000000
     10722        78  DOPC      H4X             0.6697140680      -27.5353118380      -11.7146927324  MEMB      78              0.0000000000
     10723        78  DOPC      H4Y            -0.8031509943      -27.1552352413      -10.9273285474  MEMB      78              0.0000000000
     10724        78  DOPC      C35             0.6509013744      -25.4815739608      -11.5673313247  MEMB      78              0.0000000000
     10725        78  DOPC      H5X             1.1014317061      -25.2653338797      -12.5608392549  MEMB      78              0.0000000000
     10726        78  DOPC      H5Y             1.4731792253      -25.7485981560      -10.8661918229  MEMB      78              0.0000000000
     10727        78  DOPC      C36             0.1948344754      -24.1000491127      -10.9845465036  MEMB      78              0.0000000000
     10728        78  DOPC      H6X             0.7654489015      -23.3954982098      -11.6575186801  MEMB      78              0.0000000000
     10729        78  DOPC      H6Y            -0.8484115692      -23.8195358081      -11.1594462921  MEMB      78              0.0000000000
     10730        78  DOPC      C37             0.7633831302      -23.5830712592       -9.6219025195  MEMB      78              0.0000000000
     10731        78  DOPC      H7X             1.8630481938      -23.7526129598       -9.6687785761  MEMB      78              0.0000000000
     10732        78  DOPC      H7Y             0.6051202506      -22.4779133664       -9.5879684003  MEMB      78              0.0000000000
     10733        78  DOPC      C38             0.3308766258      -24.1113360983       -8.2234088334  MEMB      78              0.0000000000
     10734        78  DOPC      H8X             1.0878148278      -23.6555411577       -7.5632178534  MEMB      78              0.0000000000
     10735        78  DOPC      H8Y             0.5450680153      -25.1918217152       -8.1321743310  MEMB      78              0.0000000000
     10736        78  DOPC      C39            -0.9588832801      -23.6509437997       -7.5879721005  MEMB      78              0.0000000000
     10737        78  DOPC      H9X            -1.6364525851      -23.1510486147       -8.2951393131  MEMB      78              0.0000000000
     10738        78  DOPC      C310           -1.4917125896      -23.9841165846       -6.3937529829  MEMB      78              0.0000000000
     10739        78  DOPC      H10X           -2.4660276882      -23.5526221745       -6.1239978753  MEMB      78              0.0000000000
     10740        78  DOPC      C311           -0.9745399156      -24.9262122239       -5.3339754863  MEMB      78              0.0000000000
     10741        78  DOPC      H11X           -0.4878175386      -24.4037456242       -4.4869836785  MEMB      78              0.0000000000
     10742        78  DOPC      H11Y           -0.2508350384      -25.6604934620       -5.7518213698  MEMB      78              0.0000000000
     10743        78  DOPC      C312           -2.1992671874      -25.6800058378       -4.7708879252  MEMB      78              0.0000000000
     10744        78  DOPC      H12X           -2.8673566368      -24.9505638117       -4.2712656128  MEMB      78              0.0000000000
     10745        78  DOPC      H12Y           -1.8567778763      -26.4367951937       -4.0281575529  MEMB      78              0.0000000000
     10746        78  DOPC      C313           -3.0013460473      -26.3666328248       -5.8722092008  MEMB      78              0.0000000000
     10747        78  DOPC      H13X           -3.4704985477      -25.6428741484       -6.5752890663  MEMB      78              0.0000000000
     10748        78  DOPC      H13Y           -2.2624258668      -26.9750578183       -6.3936505549  MEMB      78              0.0000000000
     10749        78  DOPC      C314           -3.9932465200      -27.4418097145       -5.5103084413  MEMB      78              0.0000000000
     10750        78  DOPC      H14X           -4.2468350488      -27.9649803319       -6.4657351460  MEMB      78              0.0000000000
     10751        78  DOPC      H14Y           -3.5241695826      -28.1703531667       -4.8157755983  MEMB      78              0.0000000000
     10752        78  DOPC      C315           -5.2497818918      -26.8627639167       -4.9269412745  MEMB      78              0.0000000000
     10753        78  DOPC      H15X           -5.4914922585      -25.8835034594       -5.3872354912  MEMB      78              0.0000000000
     10754        78  DOPC      H15Y           -5.0439263216      -26.7223850321       -3.8435312657  MEMB      78              0.0000000000
     10755        78  DOPC      C316           -6.4324327586      -27.7796245450       -5.1447514809  MEMB      78              0.0000000000
     10756        78  DOPC      H16X           -7.2745835882      -27.2087717293       -5.5984071621  MEMB      78              0.0000000000
     10757        78  DOPC      H16Y           -6.1578903861      -28.5776707737       -5.8633428989  MEMB      78              0.0000000000
     10758        78  DOPC      C317           -6.8507775882      -28.3796067228       -3.8213765811  MEMB      78              0.0000000000
     10759        78  DOPC      H17X           -7.3321873857      -29.3631564107       -3.9989244336  MEMB      78              0.0000000000
     10760        78  DOPC      H17Y           -5.9424741228      -28.5883960946       -3.2154125141  MEMB      78              0.0000000000
     10761        78  DOPC      C318           -7.7870249742      -27.4338748729       -3.0767609015  MEMB      78              0.0000000000
     10762        78  DOPC      H18X           -8.3142607656      -26.7486349738       -3.7749500554  MEMB      78              0.0000000000
     10763        78  DOPC      H18Y           -8.5504712711      -28.0175825423       -2.5245452079  MEMB      78              0.0000000000
     10764        78  DOPC      H18Z           -7.2283854394      -26.8010402733       -2.3634912106  MEMB      78              0.0000000000
     10765        79  DOPC      N             -21.6487409452       -9.9572437413      -19.1871177438  MEMB      79              0.0000000000
     10766        79  DOPC      C12           -22.6342549169      -10.6869551928      -18.2638957292  MEMB      79              0.0000000000
     10767        79  DOPC      H12A          -23.4173863017       -9.9907217258      -17.9945086544  MEMB      79              0.0000000000
     10768        79  DOPC      H12B          -22.1138399816      -10.9454041083      -17.3485948684  MEMB      79              0.0000000000
     10769        79  DOPC      C13           -20.6132445680      -10.9481292218      -19.6058362445  MEMB      79              0.0000000000
     10770        79  DOPC      H13A          -21.1339950751      -11.8541742224      -19.9333171913  MEMB      79              0.0000000000
     10771        79  DOPC      H13B          -20.0202019521      -10.6173493690      -20.4411244024  MEMB      79              0.0000000000
     10772        79  DOPC      H13C          -19.9918235496      -11.2721894526      -18.7889243190  MEMB      79              0.0000000000
     10773        79  DOPC      C14           -21.0107053750       -8.7927181151      -18.4851282331  MEMB      79              0.0000000000
     10774        79  DOPC      H14A          -21.7257002390       -8.0077449051      -18.2840936848  MEMB      79              0.0000000000
     10775        79  DOPC      H14B          -20.5749786026       -9.0771502710      -17.5298210042  MEMB      79              0.0000000000
     10776        79  DOPC      H14C          -20.2157305637       -8.3696722046      -19.0887366148  MEMB      79              0.0000000000
     10777        79  DOPC      C15           -22.3330584163       -9.4911740571      -20.4312432024  MEMB      79              0.0000000000
     10778        79  DOPC      H15A          -21.6087874116       -9.0156261994      -21.0820176504  MEMB      79              0.0000000000
     10779        79  DOPC      H15B          -23.1164706257       -8.7739742312      -20.2263614919  MEMB      79              0.0000000000
     10780        79  DOPC      H15C          -22.7409252409      -10.3550097899      -20.9543236265  MEMB      79              0.0000000000
     10781        79  DOPC      C11           -23.3183773052      -12.0132244637      -18.7530539796  MEMB      79              0.0000000000
     10782        79  DOPC      H11A          -23.8621040634      -12.4436974127      -17.8729155545  MEMB      79              0.0000000000
     10783        79  DOPC      H11B          -24.0789463174      -11.7570296971      -19.5266217987  MEMB      79              0.0000000000
     10784        79  DOPC      P             -22.7793798683      -14.4574445451      -19.5815517057  MEMB      79              0.0000000000
     10785        79  DOPC      O13           -21.5968713515      -15.2097279207      -20.0611366581  MEMB      79              0.0000000000
     10786        79  DOPC      O14           -23.9627702000      -14.4490504069      -20.4804893209  MEMB      79              0.0000000000
     10787        79  DOPC      O12           -22.3799854798      -12.9650871784      -19.2724156247  MEMB      79              0.0000000000
     10788        79  DOPC      O11           -23.1562419332      -14.9604785595      -18.1226195695  MEMB      79              0.0000000000
     10789        79  DOPC      C1            -24.4909889357      -15.3051833228      -17.7642416258  MEMB      79              0.0000000000
     10790        79  DOPC      HA            -24.6710378821      -16.3512180554      -18.0964969421  MEMB      79              0.0000000000
     10791        79  DOPC      HB            -25.2537649014      -14.6615656081      -18.2647363034  MEMB      79              0.0000000000
     10792        79  DOPC      C2            -24.7560085735      -15.2569873926      -16.2226894880  MEMB      79              0.0000000000
     10793        79  DOPC      HS            -25.3815257689      -16.1531404116      -16.0007848581  MEMB      79              0.0000000000
     10794        79  DOPC      O21           -25.4921356739      -14.0549477426      -15.9249785954  MEMB      79              0.0000000000
     10795        79  DOPC      C21           -26.0013328136      -14.0506877491      -14.6929021885  MEMB      79              0.0000000000
     10796        79  DOPC      O22           -26.1872181762      -15.0389392436      -14.0054356972  MEMB      79              0.0000000000
     10797        79  DOPC      C22           -26.1907673979      -12.5905485697      -14.2750658970  MEMB      79              0.0000000000
     10798        79  DOPC      H2R           -26.8691354901      -12.1211663390      -15.0150621630  MEMB      79              0.0000000000
     10799        79  DOPC      H2S           -25.2065301795      -12.0851492823      -14.3577043765  MEMB      79              0.0000000000
     10800        79  DOPC      C3            -23.4532042620      -15.3378729591      -15.3281322591  MEMB      79              0.0000000000
     10801        79  DOPC      HX            -22.7308078563      -15.9809861729      -15.8827760209  MEMB      79              0.0000000000
     10802        79  DOPC      HY            -23.7391398670      -15.8681419670      -14.3906331192  MEMB      79              0.0000000000
     10803        79  DOPC      O31           -22.8637353901      -14.0547579215      -14.9822637867  MEMB      79              0.0000000000
     10804        79  DOPC      C31           -21.6209597303      -14.1235807926      -14.4859236806  MEMB      79              0.0000000000
     10805        79  DOPC      O32           -21.0072289963      -15.1499469459      -14.2787149255  MEMB      79              0.0000000000
     10806        79  DOPC      C32           -21.0285704713      -12.6991358472      -14.3919149204  MEMB      79              0.0000000000
     10807        79  DOPC      H2X           -19.9414638577      -12.7816819357      -14.5603993355  MEMB      79              0.0000000000
     10808        79  DOPC      H2Y           -21.4482524155      -12.0926943518      -15.2191240551  MEMB      79              0.0000000000
     10809        79  DOPC      C23           -26.7577165773      -12.4303424946      -12.8446909864  MEMB      79              0.0000000000
     10810        79  DOPC      H3R           -27.7234675476      -12.9730851564      -12.7541652111  MEMB      79              0.0000000000
     10811        79  DOPC      H3S           -26.9676505903      -11.3457469723      -12.6944984451  MEMB      79              0.0000000000
     10812        79  DOPC      C24           -25.7814701387      -12.8713771432      -11.7399012347  MEMB      79              0.0000000000
     10813        79  DOPC      H4R           -24.8234713231      -12.3627863102      -11.9266662799  MEMB      79              0.0000000000
     10814        79  DOPC      H4S           -25.5922447824      -13.9661107085      -11.7817112562  MEMB      79              0.0000000000
     10815        79  DOPC      C25           -26.1985341475      -12.4513562637      -10.3246037487  MEMB      79              0.0000000000
     10816        79  DOPC      H5R           -26.8264757416      -13.2457667092       -9.8844777273  MEMB      79              0.0000000000
     10817        79  DOPC      H5S           -26.8242476941      -11.5309121156      -10.4007613839  MEMB      79              0.0000000000
     10818        79  DOPC      C26           -25.0245050066      -12.1186734735       -9.3806179011  MEMB      79              0.0000000000
     10819        79  DOPC      H6R           -25.4655537003      -11.6390636394       -8.4821321381  MEMB      79              0.0000000000
     10820        79  DOPC      H6S           -24.4001965058      -11.3350604096       -9.8371504378  MEMB      79              0.0000000000
     10821        79  DOPC      C27           -24.1279276255      -13.3040123951       -8.9588120994  MEMB      79              0.0000000000
     10822        79  DOPC      H7R           -23.6276838310      -13.7279823716       -9.8578417009  MEMB      79              0.0000000000
     10823        79  DOPC      H7S           -24.7561940713      -14.1221038533       -8.5458995663  MEMB      79              0.0000000000
     10824        79  DOPC      C28           -23.0316295052      -12.9287911955       -7.9263864110  MEMB      79              0.0000000000
     10825        79  DOPC      H8R           -22.2885634711      -12.2888381714       -8.4503469107  MEMB      79              0.0000000000
     10826        79  DOPC      H8S           -22.5001338358      -13.8644977619       -7.6473153097  MEMB      79              0.0000000000
     10827        79  DOPC      C29           -23.5289092433      -12.1935234664       -6.7031314598  MEMB      79              0.0000000000
     10828        79  DOPC      H9R           -24.0477527107      -11.2470101045       -6.9194920158  MEMB      79              0.0000000000
     10829        79  DOPC      C210          -23.3731532924      -12.5281342220       -5.4111215328  MEMB      79              0.0000000000
     10830        79  DOPC      H10R          -23.8377204584      -11.8836423770       -4.6459622962  MEMB      79              0.0000000000
     10831        79  DOPC      C211          -22.6540182902      -13.7346859919       -4.8668766706  MEMB      79              0.0000000000
     10832        79  DOPC      H11R          -22.0683405099      -13.4545066332       -3.9631020887  MEMB      79              0.0000000000
     10833        79  DOPC      H11S          -21.9328227923      -14.1582859167       -5.5978149308  MEMB      79              0.0000000000
     10834        79  DOPC      C212          -23.6611162974      -14.8180504076       -4.4643309933  MEMB      79              0.0000000000
     10835        79  DOPC      H12R          -24.2627251800      -15.1298910169       -5.3510710169  MEMB      79              0.0000000000
     10836        79  DOPC      H12S          -24.3410752879      -14.4038003815       -3.6834531372  MEMB      79              0.0000000000
     10837        79  DOPC      C213          -23.0171171986      -16.0446201072       -3.8370765019  MEMB      79              0.0000000000
     10838        79  DOPC      H13R          -22.2518433772      -15.6822462818       -3.1258186925  MEMB      79              0.0000000000
     10839        79  DOPC      H13S          -22.5102907101      -16.6225056254       -4.6449419732  MEMB      79              0.0000000000
     10840        79  DOPC      C214          -24.0349192732      -16.9466600694       -3.1200066283  MEMB      79              0.0000000000
     10841        79  DOPC      H14R          -23.6260812210      -17.9833030737       -3.1356065228  MEMB      79              0.0000000000
     10842        79  DOPC      H14S          -25.0018597984      -16.9082608849       -3.6729548962  MEMB      79              0.0000000000
     10843        79  DOPC      C215          -24.3133211484      -16.6389634806       -1.6515200672  MEMB      79              0.0000000000
     10844        79  DOPC      H15R          -25.1577006922      -17.2787685991       -1.2992870795  MEMB      79              0.0000000000
     10845        79  DOPC      H15S          -24.6415794901      -15.5803665392       -1.5667277004  MEMB      79              0.0000000000
     10846        79  DOPC      C216          -23.0872097338      -16.9207615684       -0.7790505702  MEMB      79              0.0000000000
     10847        79  DOPC      H16R          -22.1645132044      -16.6641753705       -1.3422321322  MEMB      79              0.0000000000
     10848        79  DOPC      H16S          -23.0206148380      -18.0103075823       -0.5600350917  MEMB      79              0.0000000000
     10849        79  DOPC      C217          -23.0915898291      -16.0926719118        0.5028788528  MEMB      79              0.0000000000
     10850        79  DOPC      H17R          -23.5505154454      -16.6962250991        1.3137821655  MEMB      79              0.0000000000
     10851        79  DOPC      H17S          -23.7287160709      -15.1922520565        0.3431618218  MEMB      79              0.0000000000
     10852        79  DOPC      C218          -21.7045128868      -15.6241891528        0.9349331991  MEMB      79              0.0000000000
     10853        79  DOPC      H18R          -21.0225564820      -16.4918183030        1.0591604708  MEMB      79              0.0000000000
     10854        79  DOPC      H18S          -21.7714304264      -15.0839399199        1.9028413429  MEMB      79              0.0000000000
     10855        79  DOPC      H18T          -21.2714299333      -14.9371437280        0.1760489827  MEMB      79              0.0000000000
     10856        79  DOPC      C33           -21.2340388786      -11.9570894860      -13.0471454014  MEMB      79              0.0000000000
     10857        79  DOPC      H3X           -20.4708754161      -11.1513362931      -12.9416798917  MEMB      79              0.0000000000
     10858        79  DOPC      H3Y           -21.0989303675      -12.6472934920      -12.1847514930  MEMB      79              0.0000000000
     10859        79  DOPC      C34           -22.6133753008      -11.2962172127      -13.0091467648  MEMB      79              0.0000000000
     10860        79  DOPC      H4X           -23.3374315713      -12.1233901866      -13.1533972628  MEMB      79              0.0000000000
     10861        79  DOPC      H4Y           -22.7318332207      -10.6104692608      -13.8758101174  MEMB      79              0.0000000000
     10862        79  DOPC      C35           -22.9260156451      -10.5057321608      -11.7250504788  MEMB      79              0.0000000000
     10863        79  DOPC      H5X           -22.6816753472      -11.1269819492      -10.8348913097  MEMB      79              0.0000000000
     10864        79  DOPC      H5Y           -24.0180283046      -10.2781129008      -11.7146604859  MEMB      79              0.0000000000
     10865        79  DOPC      C36           -22.1720458037       -9.1740371736      -11.6179216930  MEMB      79              0.0000000000
     10866        79  DOPC      H6X           -21.2790870408       -9.3122330699      -10.9728918709  MEMB      79              0.0000000000
     10867        79  DOPC      H6Y           -21.8377326680       -8.9152355331      -12.6472080356  MEMB      79              0.0000000000
     10868        79  DOPC      C37           -22.9861087264       -7.9676940659      -11.1118073519  MEMB      79              0.0000000000
     10869        79  DOPC      H7X           -22.4367935542       -7.0436868619      -11.4160506117  MEMB      79              0.0000000000
     10870        79  DOPC      H7Y           -23.9620418960       -7.9518190124      -11.6416301880  MEMB      79              0.0000000000
     10871        79  DOPC      C38           -23.2036586179       -7.9378774318       -9.5875340767  MEMB      79              0.0000000000
     10872        79  DOPC      H8X           -23.5623538172       -8.9412302117       -9.2645758267  MEMB      79              0.0000000000
     10873        79  DOPC      H8Y           -24.0158405877       -7.2128378352       -9.3595120799  MEMB      79              0.0000000000
     10874        79  DOPC      C39           -21.9388737919       -7.5048193908       -8.8848761544  MEMB      79              0.0000000000
     10875        79  DOPC      H9X           -21.5466794854       -6.5236814638       -9.1933840455  MEMB      79              0.0000000000
     10876        79  DOPC      C310          -21.2539789481       -8.1966810845       -7.9640023512  MEMB      79              0.0000000000
     10877        79  DOPC      H10X          -20.3403475120       -7.7627489262       -7.5306553039  MEMB      79              0.0000000000
     10878        79  DOPC      C311          -21.6077170027       -9.5537242826       -7.4319458785  MEMB      79              0.0000000000
     10879        79  DOPC      H11X          -21.2221788267      -10.3541248372       -8.0998126564  MEMB      79              0.0000000000
     10880        79  DOPC      H11Y          -22.7100706309       -9.6723220169       -7.3554247976  MEMB      79              0.0000000000
     10881        79  DOPC      C312          -21.0148000271       -9.7260118176       -6.0287160783  MEMB      79              0.0000000000
     10882        79  DOPC      H12X          -19.9569644461       -9.3840129126       -5.9943723833  MEMB      79              0.0000000000
     10883        79  DOPC      H12Y          -21.0019682771      -10.8096983817       -5.7719310917  MEMB      79              0.0000000000
     10884        79  DOPC      C313          -21.8545370932       -8.9637464535       -5.0004858757  MEMB      79              0.0000000000
     10885        79  DOPC      H13X          -21.8960599298       -7.8863221278       -5.2701886140  MEMB      79              0.0000000000
     10886        79  DOPC      H13Y          -22.8971505394       -9.3581566853       -5.0368529759  MEMB      79              0.0000000000
     10887        79  DOPC      C314          -21.3252348017       -9.1056275843       -3.5789215804  MEMB      79              0.0000000000
     10888        79  DOPC      H14X          -20.2580418048       -8.8007792731       -3.5188153329  MEMB      79              0.0000000000
     10889        79  DOPC      H14Y          -21.9160585906       -8.4288750455       -2.9180660418  MEMB      79              0.0000000000
     10890        79  DOPC      C315          -21.4907603709      -10.5349901153       -3.0769338511  MEMB      79              0.0000000000
     10891        79  DOPC      H15X          -20.7821821255      -11.2307825945       -3.5791519195  MEMB      79              0.0000000000
     10892        79  DOPC      H15Y          -22.5247961380      -10.8600527854       -3.3301065274  MEMB      79              0.0000000000
     10893        79  DOPC      C316          -21.3236840835      -10.6053248150       -1.5673919481  MEMB      79              0.0000000000
     10894        79  DOPC      H16X          -20.3125533721      -10.2561058828       -1.2779448893  MEMB      79              0.0000000000
     10895        79  DOPC      H16Y          -22.0409943257       -9.8852677683       -1.1296074498  MEMB      79              0.0000000000
     10896        79  DOPC      C317          -21.6108083628      -12.0050868370       -1.0369709497  MEMB      79              0.0000000000
     10897        79  DOPC      H17X          -21.0068699877      -12.7717419817       -1.5723736128  MEMB      79              0.0000000000
     10898        79  DOPC      H17Y          -21.3504733246      -12.0657375914        0.0427852369  MEMB      79              0.0000000000
     10899        79  DOPC      C318          -23.0569330775      -12.3712332530       -1.2116341797  MEMB      79              0.0000000000
     10900        79  DOPC      H18X          -23.3412516446      -13.1211265474       -0.4430169813  MEMB      79              0.0000000000
     10901        79  DOPC      H18Y          -23.7038207413      -11.4727695301       -1.0905636134  MEMB      79              0.0000000000
     10902        79  DOPC      H18Z          -23.2645902311      -12.7977699715       -2.2161616274  MEMB      79              0.0000000000
     10903        80  DOPC      N             -10.1396115043       25.7644130968      -19.9540019926  MEMB      80              0.0000000000
     10904        80  DOPC      C12            -8.9062015064       25.1195790990      -19.3357824946  MEMB      80              0.0000000000
     10905        80  DOPC      H12A           -8.8319788723       25.3766734704      -18.2808073704  MEMB      80              0.0000000000
     10906        80  DOPC      H12B           -8.0314340465       25.5295777869      -19.8255535703  MEMB      80              0.0000000000
     10907        80  DOPC      C13           -11.3617566000       25.4363619262      -19.1742979691  MEMB      80              0.0000000000
     10908        80  DOPC      H13A          -11.3063621891       25.8890259504      -18.1933659978  MEMB      80              0.0000000000
     10909        80  DOPC      H13B          -12.2604849813       25.7457372366      -19.6919611445  MEMB      80              0.0000000000
     10910        80  DOPC      H13C          -11.3931499109       24.3556278707      -19.0157773577  MEMB      80              0.0000000000
     10911        80  DOPC      C14           -10.3204455985       25.2478841720      -21.3418744825  MEMB      80              0.0000000000
     10912        80  DOPC      H14A          -10.6004981886       24.1963963646      -21.2884357237  MEMB      80              0.0000000000
     10913        80  DOPC      H14B          -11.0911914732       25.8103905380      -21.8535266690  MEMB      80              0.0000000000
     10914        80  DOPC      H14C           -9.3977485342       25.3427513745      -21.9095509152  MEMB      80              0.0000000000
     10915        80  DOPC      C15            -9.8676142571       27.2386483698      -20.0054646905  MEMB      80              0.0000000000
     10916        80  DOPC      H15A           -8.9222556095       27.3858359879      -20.5261928154  MEMB      80              0.0000000000
     10917        80  DOPC      H15B           -9.7645605128       27.6577082404      -19.0083471759  MEMB      80              0.0000000000
     10918        80  DOPC      H15C          -10.6310250082       27.7737501898      -20.5432097869  MEMB      80              0.0000000000
     10919        80  DOPC      C11            -8.7289552719       23.6008843810      -19.4331193994  MEMB      80              0.0000000000
     10920        80  DOPC      H11A           -8.9409905904       23.1819516473      -20.4394881275  MEMB      80              0.0000000000
     10921        80  DOPC      H11B           -7.6246716175       23.4787128118      -19.2634206271  MEMB      80              0.0000000000
     10922        80  DOPC      P              -8.9214766304       21.6417346463      -17.7593309518  MEMB      80              0.0000000000
     10923        80  DOPC      O13            -7.5676585661       21.4387890662      -18.3088577343  MEMB      80              0.0000000000
     10924        80  DOPC      O14            -9.9169359952       20.5526217552      -17.8281065138  MEMB      80              0.0000000000
     10925        80  DOPC      O12            -9.5350466801       22.9574589432      -18.4451256824  MEMB      80              0.0000000000
     10926        80  DOPC      O11            -8.7938223248       22.0475945401      -16.2457601479  MEMB      80              0.0000000000
     10927        80  DOPC      C1             -8.2215368448       23.2779458356      -15.8379841106  MEMB      80              0.0000000000
     10928        80  DOPC      HA             -7.9990754408       23.9670286589      -16.6885261178  MEMB      80              0.0000000000
     10929        80  DOPC      HB             -7.2546565246       23.0725052117      -15.3349098252  MEMB      80              0.0000000000
     10930        80  DOPC      C2             -9.2247387905       24.0015764595      -14.9150546015  MEMB      80              0.0000000000
     10931        80  DOPC      HS             -8.8416351730       25.0319759754      -14.7350519764  MEMB      80              0.0000000000
     10932        80  DOPC      O21            -9.4127947019       23.3156551470      -13.6695783006  MEMB      80              0.0000000000
     10933        80  DOPC      C21            -8.3391336440       23.1497736166      -12.9344930865  MEMB      80              0.0000000000
     10934        80  DOPC      O22            -7.2838517575       23.7495311049      -13.0429050456  MEMB      80              0.0000000000
     10935        80  DOPC      C22            -8.6138339872       22.0253522347      -11.9342943355  MEMB      80              0.0000000000
     10936        80  DOPC      H2R            -7.8732527413       21.2252069531      -12.1331340243  MEMB      80              0.0000000000
     10937        80  DOPC      H2S            -9.6372481384       21.6298654907      -12.1044041868  MEMB      80              0.0000000000
     10938        80  DOPC      C3            -10.6115122183       24.1002758518      -15.5977868438  MEMB      80              0.0000000000
     10939        80  DOPC      HX            -11.1815894342       23.1686083776      -15.3624718450  MEMB      80              0.0000000000
     10940        80  DOPC      HY            -10.5210130419       24.1329395463      -16.6982239261  MEMB      80              0.0000000000
     10941        80  DOPC      O31           -11.3174345030       25.2425205672      -15.1103711489  MEMB      80              0.0000000000
     10942        80  DOPC      C31           -10.9898462754       26.4071988840      -15.6350160833  MEMB      80              0.0000000000
     10943        80  DOPC      O32           -10.3351178838       26.5656163844      -16.6525103600  MEMB      80              0.0000000000
     10944        80  DOPC      C32           -11.5386193164       27.5074377418      -14.7662011980  MEMB      80              0.0000000000
     10945        80  DOPC      H2X           -11.0967806595       28.4445398058      -15.1723670987  MEMB      80              0.0000000000
     10946        80  DOPC      H2Y           -12.6377014012       27.5357662524      -14.8894791236  MEMB      80              0.0000000000
     10947        80  DOPC      C23            -8.4812299925       22.4794511881      -10.4698600374  MEMB      80              0.0000000000
     10948        80  DOPC      H3R            -7.5043457141       22.9847089383      -10.2955802665  MEMB      80              0.0000000000
     10949        80  DOPC      H3S            -8.5116282276       21.5779508989       -9.8142880153  MEMB      80              0.0000000000
     10950        80  DOPC      C24            -9.6389199706       23.3910826130      -10.0679634484  MEMB      80              0.0000000000
     10951        80  DOPC      H4R           -10.6053540188       22.9286536661      -10.3688906357  MEMB      80              0.0000000000
     10952        80  DOPC      H4S            -9.5463359003       24.3648488523      -10.5960688211  MEMB      80              0.0000000000
     10953        80  DOPC      C25            -9.6876506890       23.6414098923       -8.5676286873  MEMB      80              0.0000000000
     10954        80  DOPC      H5R            -9.6796253475       22.6657376461       -8.0363014489  MEMB      80              0.0000000000
     10955        80  DOPC      H5S           -10.6445907634       24.1533107642       -8.3234218644  MEMB      80              0.0000000000
     10956        80  DOPC      C26            -8.5242890621       24.5103231398       -8.0996602892  MEMB      80              0.0000000000
     10957        80  DOPC      H6R            -8.4507660167       25.4130720717       -8.7500093631  MEMB      80              0.0000000000
     10958        80  DOPC      H6S            -7.5636433615       23.9590318903       -8.2015700943  MEMB      80              0.0000000000
     10959        80  DOPC      C27            -8.6935268518       24.9858213596       -6.6579817659  MEMB      80              0.0000000000
     10960        80  DOPC      H7R            -9.5658368047       25.6674237371       -6.5665895022  MEMB      80              0.0000000000
     10961        80  DOPC      H7S            -7.8169124074       25.6255177375       -6.4967504390  MEMB      80              0.0000000000
     10962        80  DOPC      C28            -8.8662652768       23.8467903227       -5.6290647732  MEMB      80              0.0000000000
     10963        80  DOPC      H8R            -9.6455411803       23.1493434195       -6.0033898649  MEMB      80              0.0000000000
     10964        80  DOPC      H8S            -9.2999171523       24.2648835468       -4.6948981745  MEMB      80              0.0000000000
     10965        80  DOPC      C29            -7.6468753090       23.0314842262       -5.3038364524  MEMB      80              0.0000000000
     10966        80  DOPC      H9R            -7.8313969810       21.9471974890       -5.2374103624  MEMB      80              0.0000000000
     10967        80  DOPC      C210           -6.4423253368       23.4876222508       -4.9237103375  MEMB      80              0.0000000000
     10968        80  DOPC      H10R           -5.6850734917       22.7453790006       -4.6328669892  MEMB      80              0.0000000000
     10969        80  DOPC      C211           -5.9957045983       24.9161797069       -4.7198785506  MEMB      80              0.0000000000
     10970        80  DOPC      H11R           -6.7053836556       25.6904696590       -5.0553548939  MEMB      80              0.0000000000
     10971        80  DOPC      H11S           -5.0532725142       25.0762472312       -5.2702977334  MEMB      80              0.0000000000
     10972        80  DOPC      C212           -5.9059772836       25.2597854426       -3.2346270370  MEMB      80              0.0000000000
     10973        80  DOPC      H12R           -5.2812121486       26.1463627649       -3.0052820268  MEMB      80              0.0000000000
     10974        80  DOPC      H12S           -5.4394895688       24.3999709843       -2.7153761711  MEMB      80              0.0000000000
     10975        80  DOPC      C213           -7.3017017112       25.6293152868       -2.7397296363  MEMB      80              0.0000000000
     10976        80  DOPC      H13R           -8.0573211940       24.9300364934       -3.1571269925  MEMB      80              0.0000000000
     10977        80  DOPC      H13S           -7.5840975428       26.6378120843       -3.1202456368  MEMB      80              0.0000000000
     10978        80  DOPC      C214           -7.4372647901       25.6001244402       -1.2309239512  MEMB      80              0.0000000000
     10979        80  DOPC      H14R           -8.4777522483       25.2638212686       -1.0366570560  MEMB      80              0.0000000000
     10980        80  DOPC      H14S           -7.2966768191       26.6411860094       -0.8588643235  MEMB      80              0.0000000000
     10981        80  DOPC      C215           -6.4659905673       24.7244408764       -0.4372918663  MEMB      80              0.0000000000
     10982        80  DOPC      H15R           -6.6762005146       24.8898004274        0.6425457661  MEMB      80              0.0000000000
     10983        80  DOPC      H15S           -5.4519411408       25.1406536653       -0.6236744054  MEMB      80              0.0000000000
     10984        80  DOPC      C216           -6.4809603907       23.2010059844       -0.6982473876  MEMB      80              0.0000000000
     10985        80  DOPC      H16R           -6.5537474400       22.6719287950        0.2779414358  MEMB      80              0.0000000000
     10986        80  DOPC      H16S           -5.5088078879       22.8987477038       -1.1538677238  MEMB      80              0.0000000000
     10987        80  DOPC      C217           -7.6283007802       22.7142882703       -1.5862068428  MEMB      80              0.0000000000
     10988        80  DOPC      H17R           -7.4377200556       23.0464295097       -2.6207417472  MEMB      80              0.0000000000
     10989        80  DOPC      H17S           -8.5815109819       23.1758624767       -1.2623785557  MEMB      80              0.0000000000
     10990        80  DOPC      C218           -7.7925160696       21.2083149515       -1.6439339119  MEMB      80              0.0000000000
     10991        80  DOPC      H18R           -8.6700611794       20.9411846392       -2.2760472598  MEMB      80              0.0000000000
     10992        80  DOPC      H18S           -7.9404578556       20.7828844252       -0.6289930391  MEMB      80              0.0000000000
     10993        80  DOPC      H18T           -6.8773271837       20.7680346337       -2.0912457596  MEMB      80              0.0000000000
     10994        80  DOPC      C33           -11.1466258515       27.3819341308      -13.2761658534  MEMB      80              0.0000000000
     10995        80  DOPC      H3X           -11.7130725060       28.1639657512      -12.7188097641  MEMB      80              0.0000000000
     10996        80  DOPC      H3Y           -10.0621388789       27.5993947223      -13.1473637825  MEMB      80              0.0000000000
     10997        80  DOPC      C34           -11.4423128643       26.0392081549      -12.5888582843  MEMB      80              0.0000000000
     10998        80  DOPC      H4X           -10.6145598232       25.3205111881      -12.7741858193  MEMB      80              0.0000000000
     10999        80  DOPC      H4Y           -12.3574250055       25.5698760201      -13.0102797235  MEMB      80              0.0000000000
     11000        80  DOPC      C35           -11.6324149227       26.2074594245      -11.0915318394  MEMB      80              0.0000000000
     11001        80  DOPC      H5X           -11.7021758569       25.2103793259      -10.6022476187  MEMB      80              0.0000000000
     11002        80  DOPC      H5Y           -12.6157913892       26.7160123686      -10.9698570099  MEMB      80              0.0000000000
     11003        80  DOPC      C36           -10.5320522338       27.0469746421      -10.4272620508  MEMB      80              0.0000000000
     11004        80  DOPC      H6X            -9.5284647409       26.5974331502      -10.6054600304  MEMB      80              0.0000000000
     11005        80  DOPC      H6Y           -10.5149764151       28.0703309187      -10.8666859326  MEMB      80              0.0000000000
     11006        80  DOPC      C37           -10.7553237818       27.1940376552       -8.9204553307  MEMB      80              0.0000000000
     11007        80  DOPC      H7X           -10.4594533799       26.2626260703       -8.4075278985  MEMB      80              0.0000000000
     11008        80  DOPC      H7Y           -10.0875465037       28.0047647575       -8.5642077395  MEMB      80              0.0000000000
     11009        80  DOPC      C38           -12.2127685956       27.4870075642       -8.5468662358  MEMB      80              0.0000000000
     11010        80  DOPC      H8X           -12.9005368463       26.7014373945       -8.9196757247  MEMB      80              0.0000000000
     11011        80  DOPC      H8Y           -12.4738843111       28.4447306674       -9.0506443871  MEMB      80              0.0000000000
     11012        80  DOPC      C39           -12.3976015970       27.6466848926       -7.0751722868  MEMB      80              0.0000000000
     11013        80  DOPC      H9X           -12.1318371999       28.6531468862       -6.7443486814  MEMB      80              0.0000000000
     11014        80  DOPC      C310          -12.8254611115       26.7914192852       -6.1354177464  MEMB      80              0.0000000000
     11015        80  DOPC      H10X          -12.9070003276       27.1946868429       -5.1224974773  MEMB      80              0.0000000000
     11016        80  DOPC      C311          -13.2724529414       25.3574262835       -6.2051241185  MEMB      80              0.0000000000
     11017        80  DOPC      H11X          -13.4713619160       25.0057451249       -7.2404403913  MEMB      80              0.0000000000
     11018        80  DOPC      H11Y          -14.2123688704       25.2397007120       -5.6236252471  MEMB      80              0.0000000000
     11019        80  DOPC      C312          -12.1504800919       24.5225996626       -5.5598864576  MEMB      80              0.0000000000
     11020        80  DOPC      H12X          -11.6613889007       25.0664518552       -4.7175958457  MEMB      80              0.0000000000
     11021        80  DOPC      H12Y          -11.3814667014       24.3725846822       -6.3445866153  MEMB      80              0.0000000000
     11022        80  DOPC      C313          -12.5711476984       23.1549992521       -5.0121193660  MEMB      80              0.0000000000
     11023        80  DOPC      H13X          -13.0915286183       22.5892199047       -5.8143604075  MEMB      80              0.0000000000
     11024        80  DOPC      H13Y          -11.6489589637       22.5846641544       -4.7503254347  MEMB      80              0.0000000000
     11025        80  DOPC      C314          -13.4490642337       23.2430395272       -3.7526005296  MEMB      80              0.0000000000
     11026        80  DOPC      H14X          -14.2146470358       24.0413910494       -3.8597842099  MEMB      80              0.0000000000
     11027        80  DOPC      H14Y          -13.9959827185       22.2790981152       -3.6480290220  MEMB      80              0.0000000000
     11028        80  DOPC      C315          -12.6271944288       23.4917425869       -2.4755060735  MEMB      80              0.0000000000
     11029        80  DOPC      H15X          -12.3330982145       24.5622473330       -2.4337624970  MEMB      80              0.0000000000
     11030        80  DOPC      H15Y          -11.6846854041       22.9018187565       -2.5273259454  MEMB      80              0.0000000000
     11031        80  DOPC      C316          -13.3668722367       23.1079644075       -1.1843645808  MEMB      80              0.0000000000
     11032        80  DOPC      H16X          -14.3675201663       22.7252907606       -1.4316370759  MEMB      80              0.0000000000
     11033        80  DOPC      H16Y          -12.8397779022       22.2676700388       -0.6896940850  MEMB      80              0.0000000000
     11034        80  DOPC      C317          -13.4966338834       24.2666933419       -0.1937541458  MEMB      80              0.0000000000
     11035        80  DOPC      H17X          -12.4694558890       24.6554262522       -0.0151716979  MEMB      80              0.0000000000
     11036        80  DOPC      H17Y          -14.0792269746       25.0872643985       -0.6644799826  MEMB      80              0.0000000000
     11037        80  DOPC      C318          -14.1332264877       23.8909740999        1.1508459034  MEMB      80              0.0000000000
     11038        80  DOPC      H18X          -13.6078620081       24.4087494450        1.9841697734  MEMB      80              0.0000000000
     11039        80  DOPC      H18Y          -15.2039363310       24.1894706657        1.1791354199  MEMB      80              0.0000000000
     11040        80  DOPC      H18Z          -14.0629843366       22.7958011214        1.3246791745  MEMB      80              0.0000000000
     11041        81  DOPC      N              11.9938721415       23.3760700465      -18.0583355000  MEMB      81              0.0000000000
     11042        81  DOPC      C12            12.0759339461       23.5274675401      -19.5702499591  MEMB      81              0.0000000000
     11043        81  DOPC      H12A           12.9088964714       24.1739564629      -19.8211684846  MEMB      81              0.0000000000
     11044        81  DOPC      H12B           11.1620569361       23.9591099062      -19.9544984251  MEMB      81              0.0000000000
     11045        81  DOPC      C13            13.3786214695       23.1496198486      -17.5072798994  MEMB      81              0.0000000000
     11046        81  DOPC      H13A           13.4019410765       23.1138749966      -16.4307884796  MEMB      81              0.0000000000
     11047        81  DOPC      H13B           13.7311165593       22.1753593475      -17.8764230042  MEMB      81              0.0000000000
     11048        81  DOPC      H13C           14.1066055302       23.8611906766      -17.8626668526  MEMB      81              0.0000000000
     11049        81  DOPC      C14            11.2093815065       22.1543168580      -17.6721780723  MEMB      81              0.0000000000
     11050        81  DOPC      H14A           11.8017978103       21.2493307864      -17.8635866355  MEMB      81              0.0000000000
     11051        81  DOPC      H14B           10.9779074570       22.1495238480      -16.6151639821  MEMB      81              0.0000000000
     11052        81  DOPC      H14C           10.2962296920       22.0379762430      -18.2410231570  MEMB      81              0.0000000000
     11053        81  DOPC      C15            11.3761741809       24.5532543801      -17.3906802668  MEMB      81              0.0000000000
     11054        81  DOPC      H15A           10.3280895021       24.6428580193      -17.6561029702  MEMB      81              0.0000000000
     11055        81  DOPC      H15B           11.8890529541       25.4609998174      -17.6445170347  MEMB      81              0.0000000000
     11056        81  DOPC      H15C           11.4378330936       24.4091645223      -16.3156952548  MEMB      81              0.0000000000
     11057        81  DOPC      C11            12.3445534525       22.2444092498      -20.3718078105  MEMB      81              0.0000000000
     11058        81  DOPC      H11A           11.4596226139       21.5809080670      -20.2350397299  MEMB      81              0.0000000000
     11059        81  DOPC      H11B           12.4250501904       22.4780880685      -21.4585947151  MEMB      81              0.0000000000
     11060        81  DOPC      P              13.6474493907       20.0830204948      -19.8929647746  MEMB      81              0.0000000000
     11061        81  DOPC      O13            15.0367186334       19.7336481996      -20.2297357184  MEMB      81              0.0000000000
     11062        81  DOPC      O14            12.5689441889       19.4867049135      -20.7187458382  MEMB      81              0.0000000000
     11063        81  DOPC      O12            13.5627249420       21.6491603685      -19.9403911150  MEMB      81              0.0000000000
     11064        81  DOPC      O11            13.4126566665       19.8059396933      -18.3420822723  MEMB      81              0.0000000000
     11065        81  DOPC      C1             13.9114274865       18.5879984575      -17.7442814048  MEMB      81              0.0000000000
     11066        81  DOPC      HA             14.9579850196       18.7277335853      -17.3823838160  MEMB      81              0.0000000000
     11067        81  DOPC      HB             13.9259608022       17.7387556829      -18.4686215464  MEMB      81              0.0000000000
     11068        81  DOPC      C2             13.0026833405       18.1646197644      -16.5486911160  MEMB      81              0.0000000000
     11069        81  DOPC      HS             12.0050967264       17.9466979396      -17.0018629527  MEMB      81              0.0000000000
     11070        81  DOPC      O21            12.9525316233       19.2494947955      -15.6109756171  MEMB      81              0.0000000000
     11071        81  DOPC      C21            11.7896981554       19.5894048889      -15.1060094768  MEMB      81              0.0000000000
     11072        81  DOPC      O22            10.7043903579       19.1125255759      -15.3954341491  MEMB      81              0.0000000000
     11073        81  DOPC      C22            12.0854790386       20.6698166321      -14.0679472214  MEMB      81              0.0000000000
     11074        81  DOPC      H2R            12.9117872007       21.2783969353      -14.4961334943  MEMB      81              0.0000000000
     11075        81  DOPC      H2S            12.4881264858       20.1530100012      -13.1723783369  MEMB      81              0.0000000000
     11076        81  DOPC      C3             13.4575566221       16.8711758988      -15.8059720409  MEMB      81              0.0000000000
     11077        81  DOPC      HX             13.7736237640       16.1153690420      -16.5611029286  MEMB      81              0.0000000000
     11078        81  DOPC      HY             12.5900032047       16.4317046171      -15.2589547688  MEMB      81              0.0000000000
     11079        81  DOPC      O31            14.5781996433       17.1097248598      -14.9385085322  MEMB      81              0.0000000000
     11080        81  DOPC      C31            14.3488787559       17.1714813310      -13.6349028195  MEMB      81              0.0000000000
     11081        81  DOPC      O32            13.2580399094       17.2952675020      -13.0983768818  MEMB      81              0.0000000000
     11082        81  DOPC      C32            15.6940245640       16.9253229004      -12.9126754645  MEMB      81              0.0000000000
     11083        81  DOPC      H2X            16.0257298621       15.8937646942      -13.1618819922  MEMB      81              0.0000000000
     11084        81  DOPC      H2Y            16.4493041102       17.6228563111      -13.3274539505  MEMB      81              0.0000000000
     11085        81  DOPC      C23            10.9336976504       21.6252306707      -13.6863186446  MEMB      81              0.0000000000
     11086        81  DOPC      H3R            10.4472703933       21.3570182570      -12.7247889140  MEMB      81              0.0000000000
     11087        81  DOPC      H3S            10.1160348343       21.6111338780      -14.4418767174  MEMB      81              0.0000000000
     11088        81  DOPC      C24            11.4345842527       23.0597726926      -13.5062088575  MEMB      81              0.0000000000
     11089        81  DOPC      H4R            10.5904201630       23.5732639282      -13.0236036945  MEMB      81              0.0000000000
     11090        81  DOPC      H4S            11.5727968430       23.5078732845      -14.5123093617  MEMB      81              0.0000000000
     11091        81  DOPC      C25            12.7409791819       23.2769976183      -12.6997036003  MEMB      81              0.0000000000
     11092        81  DOPC      H5R            13.0880357252       24.3070310736      -12.9554596852  MEMB      81              0.0000000000
     11093        81  DOPC      H5S            13.5493958065       22.5885354508      -13.0161135027  MEMB      81              0.0000000000
     11094        81  DOPC      C26            12.6270248625       23.2589745372      -11.1637537678  MEMB      81              0.0000000000
     11095        81  DOPC      H6R            11.6739485727       23.7170489567      -10.8503861092  MEMB      81              0.0000000000
     11096        81  DOPC      H6S            13.4403802367       23.8813395578      -10.7375547104  MEMB      81              0.0000000000
     11097        81  DOPC      C27            12.7183439953       21.8835775304      -10.5117753589  MEMB      81              0.0000000000
     11098        81  DOPC      H7R            13.7782651778       21.6255617731      -10.3154221359  MEMB      81              0.0000000000
     11099        81  DOPC      H7S            12.3762777471       21.1901713609      -11.2927542529  MEMB      81              0.0000000000
     11100        81  DOPC      C28            11.8897644728       21.7501633385       -9.2108954159  MEMB      81              0.0000000000
     11101        81  DOPC      H8R            11.9209455619       22.7216511771       -8.6664517878  MEMB      81              0.0000000000
     11102        81  DOPC      H8S            12.3789003501       21.0218454321       -8.5387851591  MEMB      81              0.0000000000
     11103        81  DOPC      C29            10.4687282555       21.2894676700       -9.3880895775  MEMB      81              0.0000000000
     11104        81  DOPC      H9R             9.7269551893       21.8383373967       -8.7863827530  MEMB      81              0.0000000000
     11105        81  DOPC      C210           10.0476753161       20.2577728159      -10.1453469141  MEMB      81              0.0000000000
     11106        81  DOPC      H10R            8.9839474127       20.0279076086      -10.1417405015  MEMB      81              0.0000000000
     11107        81  DOPC      C211           10.8594222490       19.3049210160      -10.9966752101  MEMB      81              0.0000000000
     11108        81  DOPC      H11R           11.9392955273       19.3229145078      -10.7247099396  MEMB      81              0.0000000000
     11109        81  DOPC      H11S           10.7989420989       19.5930181607      -12.0590033309  MEMB      81              0.0000000000
     11110        81  DOPC      C212           10.4137873606       17.8379778555      -11.0342352004  MEMB      81              0.0000000000
     11111        81  DOPC      H12R           11.1557091616       17.3158288156      -11.6761519251  MEMB      81              0.0000000000
     11112        81  DOPC      H12S            9.4422323313       17.7271524773      -11.5476176656  MEMB      81              0.0000000000
     11113        81  DOPC      C213           10.3613741804       17.1791700735       -9.6648803043  MEMB      81              0.0000000000
     11114        81  DOPC      H13R           10.4147954474       16.0767519974       -9.7922689489  MEMB      81              0.0000000000
     11115        81  DOPC      H13S            9.4014024833       17.4306970152       -9.1661189289  MEMB      81              0.0000000000
     11116        81  DOPC      C214           11.4926810727       17.6592122208       -8.7723859630  MEMB      81              0.0000000000
     11117        81  DOPC      H14R           11.3207600253       18.7158199774       -8.4722646195  MEMB      81              0.0000000000
     11118        81  DOPC      H14S           12.4379636072       17.6255985965       -9.3580956192  MEMB      81              0.0000000000
     11119        81  DOPC      C215           11.6452845072       16.8546465011       -7.5018036331  MEMB      81              0.0000000000
     11120        81  DOPC      H15R           10.8495445159       16.0887449164       -7.4252288859  MEMB      81              0.0000000000
     11121        81  DOPC      H15S           11.5117770571       17.5281991633       -6.6268053214  MEMB      81              0.0000000000
     11122        81  DOPC      C216           13.0171053772       16.1953147671       -7.4429311014  MEMB      81              0.0000000000
     11123        81  DOPC      H16R           13.8083481146       16.9567830491       -7.6291347003  MEMB      81              0.0000000000
     11124        81  DOPC      H16S           13.0990247960       15.4306589694       -8.2492569093  MEMB      81              0.0000000000
     11125        81  DOPC      C217           13.1430242414       15.5395753635       -6.0819399186  MEMB      81              0.0000000000
     11126        81  DOPC      H17R           12.5273885102       14.6142216488       -6.1441816151  MEMB      81              0.0000000000
     11127        81  DOPC      H17S           12.7810301239       16.2056220954       -5.2684901788  MEMB      81              0.0000000000
     11128        81  DOPC      C218           14.4975061127       15.0901887408       -5.6654300876  MEMB      81              0.0000000000
     11129        81  DOPC      H18R           14.3998632650       14.0339599650       -5.3177678668  MEMB      81              0.0000000000
     11130        81  DOPC      H18S           15.1941909688       15.1542901127       -6.5290573907  MEMB      81              0.0000000000
     11131        81  DOPC      H18T           14.9147400285       15.6372362794       -4.7984359208  MEMB      81              0.0000000000
     11132        81  DOPC      C33            15.6147418198       17.1100930834      -11.3815246924  MEMB      81              0.0000000000
     11133        81  DOPC      H3X            14.6152427751       16.7765418488      -11.0125529015  MEMB      81              0.0000000000
     11134        81  DOPC      H3Y            15.6735547541       18.1930888982      -11.1714916692  MEMB      81              0.0000000000
     11135        81  DOPC      C34            16.6175075518       16.2812958738      -10.5294955495  MEMB      81              0.0000000000
     11136        81  DOPC      H4X            16.7102121355       15.3159041034      -11.0427874453  MEMB      81              0.0000000000
     11137        81  DOPC      H4Y            16.0858430351       16.1659658374       -9.5627553357  MEMB      81              0.0000000000
     11138        81  DOPC      C35            17.9886594060       16.8998433290      -10.1591423062  MEMB      81              0.0000000000
     11139        81  DOPC      H5X            17.6110765006       17.9109785621      -10.1166369124  MEMB      81              0.0000000000
     11140        81  DOPC      H5Y            18.7589725886       16.8262364110      -10.9523550832  MEMB      81              0.0000000000
     11141        81  DOPC      C36            18.6046220999       16.8368554782       -8.7285131482  MEMB      81              0.0000000000
     11142        81  DOPC      H6X            17.8072791892       17.0520057596       -7.9868098428  MEMB      81              0.0000000000
     11143        81  DOPC      H6Y            18.9600017939       15.8122177698       -8.5246739361  MEMB      81              0.0000000000
     11144        81  DOPC      C37            19.7395322793       17.9041038173       -8.5214646367  MEMB      81              0.0000000000
     11145        81  DOPC      H7X            20.7199257446       17.3829382720       -8.4590144109  MEMB      81              0.0000000000
     11146        81  DOPC      H7Y            19.7947488639       18.4950352990       -9.4548640359  MEMB      81              0.0000000000
     11147        81  DOPC      C38            19.5591909558       18.9123659054       -7.2992377700  MEMB      81              0.0000000000
     11148        81  DOPC      H8X            20.1250623027       18.3432152160       -6.5320081875  MEMB      81              0.0000000000
     11149        81  DOPC      H8Y            18.5022311554       18.8865064691       -6.9700628012  MEMB      81              0.0000000000
     11150        81  DOPC      C39            20.0969543024       20.3719433928       -7.3353351500  MEMB      81              0.0000000000
     11151        81  DOPC      H9X            21.1928294166       20.2545415060       -7.3782320424  MEMB      81              0.0000000000
     11152        81  DOPC      C310           19.7178962308       21.7127264107       -7.1541722495  MEMB      81              0.0000000000
     11153        81  DOPC      H10X           20.5899613492       22.3775129463       -7.2005539668  MEMB      81              0.0000000000
     11154        81  DOPC      C311           18.4845943720       22.6426800038       -6.8744988968  MEMB      81              0.0000000000
     11155        81  DOPC      H11X           17.6299161121       22.0074674376       -6.7017148430  MEMB      81              0.0000000000
     11156        81  DOPC      H11Y           18.2815697222       23.1762669373       -7.8211648334  MEMB      81              0.0000000000
     11157        81  DOPC      C312           18.5684397348       23.7899618365       -5.7171316187  MEMB      81              0.0000000000
     11158        81  DOPC      H12X           19.4956454024       24.2931550774       -6.0205265671  MEMB      81              0.0000000000
     11159        81  DOPC      H12Y           18.8739896121       23.2118235192       -4.8209784839  MEMB      81              0.0000000000
     11160        81  DOPC      C313           17.6775135857       25.0142550116       -5.0344037046  MEMB      81              0.0000000000
     11161        81  DOPC      H13X           17.7598132179       24.8416898461       -3.9470542953  MEMB      81              0.0000000000
     11162        81  DOPC      H13Y           18.3989745008       25.8537424324       -5.2152390145  MEMB      81              0.0000000000
     11163        81  DOPC      C314           16.3246260586       25.9123900491       -5.2026788231  MEMB      81              0.0000000000
     11164        81  DOPC      H14X           16.4683570972       26.7203890668       -4.4558484269  MEMB      81              0.0000000000
     11165        81  DOPC      H14Y           16.3733053949       26.4400920139       -6.1741016429  MEMB      81              0.0000000000
     11166        81  DOPC      C315           14.7642241297       25.6198931792       -4.9560177010  MEMB      81              0.0000000000
     11167        81  DOPC      H15X           14.3804515499       25.1416392591       -5.8777908959  MEMB      81              0.0000000000
     11168        81  DOPC      H15Y           14.2557168116       26.6147455056       -4.9355093544  MEMB      81              0.0000000000
     11169        81  DOPC      C316           14.1355016004       24.8443876687       -3.7432597063  MEMB      81              0.0000000000
     11170        81  DOPC      H16X           14.8337942359       24.0908053406       -3.3397049112  MEMB      81              0.0000000000
     11171        81  DOPC      H16Y           13.9292088089       25.5772608490       -2.9334052727  MEMB      81              0.0000000000
     11172        81  DOPC      C317           12.7667139875       24.1401564465       -4.0702052474  MEMB      81              0.0000000000
     11173        81  DOPC      H17X           11.9302305910       24.7784910883       -3.7090907064  MEMB      81              0.0000000000
     11174        81  DOPC      H17Y           12.6585917164       24.1096968429       -5.1787810673  MEMB      81              0.0000000000
     11175        81  DOPC      C318           12.5165129885       22.6907472314       -3.5696504144  MEMB      81              0.0000000000
     11176        81  DOPC      H18X           12.4822276560       22.6223394689       -2.4662258100  MEMB      81              0.0000000000
     11177        81  DOPC      H18Y           11.5477222351       22.3114742381       -3.9708261009  MEMB      81              0.0000000000
     11178        81  DOPC      H18Z           13.2930082999       21.9782969246       -3.9121987941  MEMB      81              0.0000000000
     11179        82  DOPC      N              12.3517208447      -23.8927472845      -21.3145805463  MEMB      82              0.0000000000
     11180        82  DOPC      C12            12.7022059805      -24.7427687593      -20.0894946777  MEMB      82              0.0000000000
     11181        82  DOPC      H12A           13.7125885071      -24.4708448971      -19.7977514266  MEMB      82              0.0000000000
     11182        82  DOPC      H12B           12.7494157790      -25.7749879789      -20.4088251114  MEMB      82              0.0000000000
     11183        82  DOPC      C13            12.7752511604      -22.4697205544      -21.0639430456  MEMB      82              0.0000000000
     11184        82  DOPC      H13A           12.1006257038      -21.7537107862      -21.5285242765  MEMB      82              0.0000000000
     11185        82  DOPC      H13B           12.6976825412      -22.2415822792      -19.9960037691  MEMB      82              0.0000000000
     11186        82  DOPC      H13C           13.8037776185      -22.2598340325      -21.3274657183  MEMB      82              0.0000000000
     11187        82  DOPC      C14            10.8664510577      -23.8706840722      -21.5448851255  MEMB      82              0.0000000000
     11188        82  DOPC      H14A           10.4264943618      -24.8516005096      -21.5901593632  MEMB      82              0.0000000000
     11189        82  DOPC      H14B           10.4033357065      -23.3723577443      -20.6782697157  MEMB      82              0.0000000000
     11190        82  DOPC      H14C           10.6073725715      -23.2881407672      -22.4089894389  MEMB      82              0.0000000000
     11191        82  DOPC      C15            13.1241458743      -24.4624848383      -22.4658596341  MEMB      82              0.0000000000
     11192        82  DOPC      H15A           12.7499334183      -25.4267768537      -22.7978271300  MEMB      82              0.0000000000
     11193        82  DOPC      H15B           14.1654438872      -24.5930628981      -22.1846287355  MEMB      82              0.0000000000
     11194        82  DOPC      H15C           13.1343817992      -23.8011606104      -23.3279216971  MEMB      82              0.0000000000
     11195        82  DOPC      C11            11.8560922251      -24.7032993391      -18.7819150242  MEMB      82              0.0000000000
     11196        82  DOPC      H11A           11.3933599720      -25.6965695188      -18.6045922879  MEMB      82              0.0000000000
     11197        82  DOPC      H11B           12.5656504022      -24.5473395092      -17.9305200473  MEMB      82              0.0000000000
     11198        82  DOPC      P              10.9662030354      -22.3978359616      -18.0019490630  MEMB      82              0.0000000000
     11199        82  DOPC      O13             9.8179541053      -21.5685657347      -18.4100574781  MEMB      82              0.0000000000
     11200        82  DOPC      O14            12.3401147329      -21.9075499769      -18.2119894113  MEMB      82              0.0000000000
     11201        82  DOPC      O12            10.8128884741      -23.7428191080      -18.8048111312  MEMB      82              0.0000000000
     11202        82  DOPC      O11            10.7286968035      -22.9175076757      -16.5276252660  MEMB      82              0.0000000000
     11203        82  DOPC      C1              9.4553785920      -23.5141087683      -16.2490608874  MEMB      82              0.0000000000
     11204        82  DOPC      HA              8.9922947885      -23.9994452927      -17.1422706419  MEMB      82              0.0000000000
     11205        82  DOPC      HB              8.7673073642      -22.7141482760      -15.8957839630  MEMB      82              0.0000000000
     11206        82  DOPC      C2              9.5269953823      -24.6050723203      -15.1533914766  MEMB      82              0.0000000000
     11207        82  DOPC      HS              8.4850246855      -24.9775642112      -15.0164198764  MEMB      82              0.0000000000
     11208        82  DOPC      O21            10.0548349379      -24.0331406208      -13.9576415151  MEMB      82              0.0000000000
     11209        82  DOPC      C21             9.2524760112      -23.9520510066      -12.9323288331  MEMB      82              0.0000000000
     11210        82  DOPC      O22             8.0366498132      -24.0348046788      -12.9599474930  MEMB      82              0.0000000000
     11211        82  DOPC      C22            10.1498917037      -23.8445828827      -11.7184292801  MEMB      82              0.0000000000
     11212        82  DOPC      H2R            10.8070177589      -22.9840136358      -11.8980507635  MEMB      82              0.0000000000
     11213        82  DOPC      H2S            10.8000085949      -24.7473465987      -11.7177703823  MEMB      82              0.0000000000
     11214        82  DOPC      C3             10.3807120796      -25.8630250734      -15.5375025697  MEMB      82              0.0000000000
     11215        82  DOPC      HX              9.9064884014      -26.2843347534      -16.4489894059  MEMB      82              0.0000000000
     11216        82  DOPC      HY             10.2863508070      -26.6200882855      -14.7255392241  MEMB      82              0.0000000000
     11217        82  DOPC      O31            11.7662075075      -25.5893791184      -15.8398314725  MEMB      82              0.0000000000
     11218        82  DOPC      C31            12.4980776937      -25.2145208655      -14.7880765995  MEMB      82              0.0000000000
     11219        82  DOPC      O32            12.2461302206      -25.4604351059      -13.6231929556  MEMB      82              0.0000000000
     11220        82  DOPC      C32            13.8101775603      -24.6095468076      -15.2894308338  MEMB      82              0.0000000000
     11221        82  DOPC      H2X            14.5999633089      -24.9428557431      -14.5923579886  MEMB      82              0.0000000000
     11222        82  DOPC      H2Y            14.0412580943      -25.0093743716      -16.2973583581  MEMB      82              0.0000000000
     11223        82  DOPC      C23             9.4767476750      -23.6979430592      -10.3458356284  MEMB      82              0.0000000000
     11224        82  DOPC      H3R             8.5182937418      -24.2598512201      -10.2757990180  MEMB      82              0.0000000000
     11225        82  DOPC      H3S             9.2553678960      -22.6218360647      -10.1860787956  MEMB      82              0.0000000000
     11226        82  DOPC      C24            10.4748561852      -24.2173292356       -9.3116589763  MEMB      82              0.0000000000
     11227        82  DOPC      H4R            11.4863060584      -23.8443053486       -9.6030761060  MEMB      82              0.0000000000
     11228        82  DOPC      H4S            10.5095219553      -25.3291215933       -9.3694360116  MEMB      82              0.0000000000
     11229        82  DOPC      C25            10.2546318039      -23.7953270120       -7.8601114784  MEMB      82              0.0000000000
     11230        82  DOPC      H5R             9.2099594592      -23.9530721206       -7.5249673048  MEMB      82              0.0000000000
     11231        82  DOPC      H5S            10.4727166327      -22.7031142282       -7.7844031076  MEMB      82              0.0000000000
     11232        82  DOPC      C26            11.2408084293      -24.5598791793       -6.9670312296  MEMB      82              0.0000000000
     11233        82  DOPC      H6R            11.7269941493      -23.8565201911       -6.2573276608  MEMB      82              0.0000000000
     11234        82  DOPC      H6S            12.0240253440      -24.9803959898       -7.6403209202  MEMB      82              0.0000000000
     11235        82  DOPC      C27            10.6596112926      -25.7435398153       -6.1892661007  MEMB      82              0.0000000000
     11236        82  DOPC      H7R            10.1647976875      -26.4213630559       -6.9172844144  MEMB      82              0.0000000000
     11237        82  DOPC      H7S             9.8813251734      -25.3956216914       -5.4773644546  MEMB      82              0.0000000000
     11238        82  DOPC      C28            11.7396706380      -26.5574855927       -5.4517342308  MEMB      82              0.0000000000
     11239        82  DOPC      H8R            12.5720259149      -26.7764516833       -6.1457721096  MEMB      82              0.0000000000
     11240        82  DOPC      H8S            11.3141395101      -27.5499496046       -5.1941144800  MEMB      82              0.0000000000
     11241        82  DOPC      C29            12.2894403547      -25.8964552848       -4.2232392366  MEMB      82              0.0000000000
     11242        82  DOPC      H9R            13.0953650384      -25.1652716657       -4.3808647632  MEMB      82              0.0000000000
     11243        82  DOPC      C210           11.8414375986      -26.1144244273       -2.9825900715  MEMB      82              0.0000000000
     11244        82  DOPC      H10R           12.3371027584      -25.5829193126       -2.1557000209  MEMB      82              0.0000000000
     11245        82  DOPC      C211           10.7159378613      -27.0454532537       -2.5938300540  MEMB      82              0.0000000000
     11246        82  DOPC      H11R           11.1381294182      -27.9574066632       -2.1337177063  MEMB      82              0.0000000000
     11247        82  DOPC      H11S           10.1315674627      -27.4213899364       -3.4617448070  MEMB      82              0.0000000000
     11248        82  DOPC      C212            9.7297903506      -26.4068445329       -1.5929837671  MEMB      82              0.0000000000
     11249        82  DOPC      H12R            9.1417711528      -27.2451571172       -1.1561253153  MEMB      82              0.0000000000
     11250        82  DOPC      H12S            9.0172522297      -25.7405626826       -2.1242928926  MEMB      82              0.0000000000
     11251        82  DOPC      C213           10.4331732935      -25.6388687908       -0.4590599893  MEMB      82              0.0000000000
     11252        82  DOPC      H13R           10.6655701691      -24.5905473904       -0.7090501134  MEMB      82              0.0000000000
     11253        82  DOPC      H13S           11.4306443593      -26.1049018640       -0.3540907114  MEMB      82              0.0000000000
     11254        82  DOPC      C214            9.7164363859      -25.6647221528        0.8922032247  MEMB      82              0.0000000000
     11255        82  DOPC      H14R            8.9265934488      -26.4460987790        0.8865812829  MEMB      82              0.0000000000
     11256        82  DOPC      H14S            9.1937508014      -24.6936763189        1.0488843318  MEMB      82              0.0000000000
     11257        82  DOPC      C215           10.6972036049      -25.9258585430        2.0482993825  MEMB      82              0.0000000000
     11258        82  DOPC      H15R           10.1129593523      -26.0592057411        2.9835397611  MEMB      82              0.0000000000
     11259        82  DOPC      H15S           11.3292747335      -25.0139344493        2.1703218633  MEMB      82              0.0000000000
     11260        82  DOPC      C216           11.6518610589      -27.1292253740        1.8637528926  MEMB      82              0.0000000000
     11261        82  DOPC      H16R           12.1397636571      -27.3375476373        2.8371078871  MEMB      82              0.0000000000
     11262        82  DOPC      H16S           12.4834261209      -26.8289485568        1.1851975806  MEMB      82              0.0000000000
     11263        82  DOPC      C217           11.0212230803      -28.4216657253        1.3016884448  MEMB      82              0.0000000000
     11264        82  DOPC      H17R           10.0369116025      -28.2124628345        0.8339532960  MEMB      82              0.0000000000
     11265        82  DOPC      H17S           10.8244718987      -29.1239912910        2.1409617623  MEMB      82              0.0000000000
     11266        82  DOPC      C218           11.8835947283      -29.1220566779        0.2421062217  MEMB      82              0.0000000000
     11267        82  DOPC      H18R           12.8406741782      -29.4871390482        0.6628376605  MEMB      82              0.0000000000
     11268        82  DOPC      H18S           12.1502782134      -28.4100527608       -0.5599082679  MEMB      82              0.0000000000
     11269        82  DOPC      H18T           11.3358416454      -29.9798106534       -0.2058345263  MEMB      82              0.0000000000
     11270        82  DOPC      C33            13.8571464547      -23.0697877839      -15.2801495780  MEMB      82              0.0000000000
     11271        82  DOPC      H3X            13.1215431601      -22.6288841793      -15.9819939411  MEMB      82              0.0000000000
     11272        82  DOPC      H3Y            14.8658363585      -22.7596798643      -15.6381610431  MEMB      82              0.0000000000
     11273        82  DOPC      C34            13.6238205671      -22.5279720381      -13.8671422509  MEMB      82              0.0000000000
     11274        82  DOPC      H4X            14.2919758837      -23.0813785216      -13.1685456511  MEMB      82              0.0000000000
     11275        82  DOPC      H4Y            12.5662970458      -22.7366050581      -13.5884307822  MEMB      82              0.0000000000
     11276        82  DOPC      C35            13.8918420171      -21.0338427038      -13.7171552390  MEMB      82              0.0000000000
     11277        82  DOPC      H5X            13.1982532279      -20.4425225593      -14.3600889791  MEMB      82              0.0000000000
     11278        82  DOPC      H5Y            14.9119278727      -20.8203712920      -14.0961543227  MEMB      82              0.0000000000
     11279        82  DOPC      C36            13.8285283927      -20.5528493520      -12.2549836960  MEMB      82              0.0000000000
     11280        82  DOPC      H6X            14.5869530210      -21.0888725234      -11.6505402941  MEMB      82              0.0000000000
     11281        82  DOPC      H6Y            14.0745005855      -19.4791903731      -12.2618893493  MEMB      82              0.0000000000
     11282        82  DOPC      C37            12.4662798438      -20.7095507488      -11.5808287713  MEMB      82              0.0000000000
     11283        82  DOPC      H7X            11.7209298282      -20.2279355343      -12.2316203670  MEMB      82              0.0000000000
     11284        82  DOPC      H7Y            12.2450826175      -21.7925420728      -11.5626551314  MEMB      82              0.0000000000
     11285        82  DOPC      C38            12.3409295367      -20.0948638413      -10.1716096594  MEMB      82              0.0000000000
     11286        82  DOPC      H8X            11.2704859578      -19.8864826214       -9.9523859652  MEMB      82              0.0000000000
     11287        82  DOPC      H8Y            12.8941769352      -19.1369804836      -10.1114292015  MEMB      82              0.0000000000
     11288        82  DOPC      C39            12.8121584142      -21.1395182803       -9.2146625894  MEMB      82              0.0000000000
     11289        82  DOPC      H9X            13.0972846529      -22.0750105138       -9.7157508241  MEMB      82              0.0000000000
     11290        82  DOPC      C310           13.0119900129      -21.1192031667       -7.8990182599  MEMB      82              0.0000000000
     11291        82  DOPC      H10X           13.1746050805      -22.1135231165       -7.4709905863  MEMB      82              0.0000000000
     11292        82  DOPC      C311           12.8534914528      -20.0895275141       -6.8181108276  MEMB      82              0.0000000000
     11293        82  DOPC      H11X           11.9307749669      -19.4906325686       -6.9342271262  MEMB      82              0.0000000000
     11294        82  DOPC      H11Y           13.7300900045      -19.4053177676       -6.8291473570  MEMB      82              0.0000000000
     11295        82  DOPC      C312           12.9012378897      -20.9344056839       -5.5205908175  MEMB      82              0.0000000000
     11296        82  DOPC      H12X           13.9668484187      -21.1876476543       -5.3211596654  MEMB      82              0.0000000000
     11297        82  DOPC      H12Y           12.3137289659      -21.8714264615       -5.6287116292  MEMB      82              0.0000000000
     11298        82  DOPC      C313           12.4012979253      -20.3588735818       -4.2076672527  MEMB      82              0.0000000000
     11299        82  DOPC      H13X           12.3597309273      -21.1608423331       -3.4383688852  MEMB      82              0.0000000000
     11300        82  DOPC      H13Y           13.2011680233      -19.6582552636       -3.8856421379  MEMB      82              0.0000000000
     11301        82  DOPC      C314           11.0649328825      -19.6268296361       -4.2697417754  MEMB      82              0.0000000000
     11302        82  DOPC      H14X           10.7370278322      -19.3567838759       -3.2377834161  MEMB      82              0.0000000000
     11303        82  DOPC      H14Y           11.3439404522      -18.7048738906       -4.8230321308  MEMB      82              0.0000000000
     11304        82  DOPC      C315            9.8672575242      -20.1848533507       -5.0637497858  MEMB      82              0.0000000000
     11305        82  DOPC      H15X           10.0375726764      -19.9804351834       -6.1384699483  MEMB      82              0.0000000000
     11306        82  DOPC      H15Y            8.9771450846      -19.5929754214       -4.7520565384  MEMB      82              0.0000000000
     11307        82  DOPC      C316            9.4855540778      -21.6545294389       -4.9213841617  MEMB      82              0.0000000000
     11308        82  DOPC      H16X            8.5326884645      -21.8200441972       -5.4793513036  MEMB      82              0.0000000000
     11309        82  DOPC      H16Y           10.2521525423      -22.3024177344       -5.3932690256  MEMB      82              0.0000000000
     11310        82  DOPC      C317            9.2784866597      -22.0792869684       -3.4805786910  MEMB      82              0.0000000000
     11311        82  DOPC      H17X            9.4149982188      -21.2225207087       -2.7869287564  MEMB      82              0.0000000000
     11312        82  DOPC      H17Y            8.2340499419      -22.4251394340       -3.3648492998  MEMB      82              0.0000000000
     11313        82  DOPC      C318           10.1954546072      -23.2131668118       -3.0764682772  MEMB      82              0.0000000000
     11314        82  DOPC      H18X           10.0943575701      -24.0712866951       -3.7710078841  MEMB      82              0.0000000000
     11315        82  DOPC      H18Y           11.2599458275      -22.9060446202       -3.0383008708  MEMB      82              0.0000000000
     11316        82  DOPC      H18Z            9.8722264564      -23.5439785289       -2.0783024206  MEMB      82              0.0000000000
     11317        83  DOPC      N              27.1742010903        0.1727689074      -19.1831039640  MEMB      83              0.0000000000
     11318        83  DOPC      C12            26.0949561654       -0.1964950222      -18.1913277628  MEMB      83              0.0000000000
     11319        83  DOPC      H12A           25.3711893355        0.6184688060      -18.1441708818  MEMB      83              0.0000000000
     11320        83  DOPC      H12B           26.5300461934       -0.2607013168      -17.2052014983  MEMB      83              0.0000000000
     11321        83  DOPC      C13            27.7950361017        1.4836379043      -18.8684876528  MEMB      83              0.0000000000
     11322        83  DOPC      H13A           28.3526804631        1.8597454665      -19.7285337060  MEMB      83              0.0000000000
     11323        83  DOPC      H13B           27.0145422454        2.2129147589      -18.6653917067  MEMB      83              0.0000000000
     11324        83  DOPC      H13C           28.4675586401        1.4553723503      -18.0252617807  MEMB      83              0.0000000000
     11325        83  DOPC      C14            26.6256267369        0.3795467086      -20.5539904788  MEMB      83              0.0000000000
     11326        83  DOPC      H14A           27.4133492817        0.5621229612      -21.2733219225  MEMB      83              0.0000000000
     11327        83  DOPC      H14B           26.0178005542       -0.4631024779      -20.8776953626  MEMB      83              0.0000000000
     11328        83  DOPC      H14C           25.9596679798        1.2459835911      -20.5954827113  MEMB      83              0.0000000000
     11329        83  DOPC      C15            28.2021679295       -0.9113979159      -19.1553784031  MEMB      83              0.0000000000
     11330        83  DOPC      H15A           27.7897506048       -1.8574442424      -19.5052173809  MEMB      83              0.0000000000
     11331        83  DOPC      H15B           28.5097868794       -1.1170169839      -18.1323228899  MEMB      83              0.0000000000
     11332        83  DOPC      H15C           29.0771673692       -0.6396522230      -19.7276414685  MEMB      83              0.0000000000
     11333        83  DOPC      C11            25.2658882386       -1.4770503122      -18.4642201288  MEMB      83              0.0000000000
     11334        83  DOPC      H11A           25.9467937985       -2.3548412312      -18.5430675134  MEMB      83              0.0000000000
     11335        83  DOPC      H11B           24.5932246684       -1.6818077217      -17.5995068935  MEMB      83              0.0000000000
     11336        83  DOPC      P              23.4044618443       -0.2389548698      -19.8928645937  MEMB      83              0.0000000000
     11337        83  DOPC      O13            22.0373586705       -0.7734092583      -19.7509551745  MEMB      83              0.0000000000
     11338        83  DOPC      O14            23.7132719844        0.5270007881      -21.1140786652  MEMB      83              0.0000000000
     11339        83  DOPC      O12            24.5010215731       -1.3707972436      -19.6578190276  MEMB      83              0.0000000000
     11340        83  DOPC      O11            23.6705628055        0.8430492479      -18.7967507168  MEMB      83              0.0000000000
     11341        83  DOPC      C1             23.0496975791        1.0506193272      -17.5646094874  MEMB      83              0.0000000000
     11342        83  DOPC      HA             23.1335392016        0.1464122314      -16.9176090486  MEMB      83              0.0000000000
     11343        83  DOPC      HB             21.9816833488        1.2901220948      -17.7375633190  MEMB      83              0.0000000000
     11344        83  DOPC      C2             23.7404711371        2.2542569443      -16.8718090011  MEMB      83              0.0000000000
     11345        83  DOPC      HS             23.7715352573        3.0844557804      -17.6194291374  MEMB      83              0.0000000000
     11346        83  DOPC      O21            25.0737262207        1.8445017066      -16.4841238174  MEMB      83              0.0000000000
     11347        83  DOPC      C21            25.9227332598        2.8443396464      -16.2796730342  MEMB      83              0.0000000000
     11348        83  DOPC      O22            25.6366702882        4.0146465238      -16.4475046067  MEMB      83              0.0000000000
     11349        83  DOPC      C22            27.3168132487        2.2412055735      -15.9872292252  MEMB      83              0.0000000000
     11350        83  DOPC      H2R            27.9767160183        2.7061980686      -16.7474212072  MEMB      83              0.0000000000
     11351        83  DOPC      H2S            27.2888667849        1.1398682915      -16.1113495563  MEMB      83              0.0000000000
     11352        83  DOPC      C3             22.9272616890        2.6923738699      -15.6403545150  MEMB      83              0.0000000000
     11353        83  DOPC      HX             21.9227620730        3.0510546743      -15.9567741969  MEMB      83              0.0000000000
     11354        83  DOPC      HY             23.4388133510        3.5210171479      -15.1019860080  MEMB      83              0.0000000000
     11355        83  DOPC      O31            22.8107368146        1.5247913194      -14.8290388449  MEMB      83              0.0000000000
     11356        83  DOPC      C31            22.3991950287        1.7267362370      -13.5934825013  MEMB      83              0.0000000000
     11357        83  DOPC      O32            22.0003606581        2.7946870804      -13.1628423938  MEMB      83              0.0000000000
     11358        83  DOPC      C32            22.4036692152        0.3923308916      -12.8585238140  MEMB      83              0.0000000000
     11359        83  DOPC      H2X            22.7670990180        0.5730902110      -11.8343317808  MEMB      83              0.0000000000
     11360        83  DOPC      H2Y            21.3565908274        0.0316089082      -12.8039619117  MEMB      83              0.0000000000
     11361        83  DOPC      C23            28.0413395136        2.5794309572      -14.6765380535  MEMB      83              0.0000000000
     11362        83  DOPC      H3R            28.1685673199        3.6819621561      -14.6216311039  MEMB      83              0.0000000000
     11363        83  DOPC      H3S            29.0680960371        2.1437565102      -14.7304116472  MEMB      83              0.0000000000
     11364        83  DOPC      C24            27.3479841005        2.0156787852      -13.4412061052  MEMB      83              0.0000000000
     11365        83  DOPC      H4R            27.3651539223        0.9042920657      -13.4569721996  MEMB      83              0.0000000000
     11366        83  DOPC      H4S            26.2929973131        2.3514145486      -13.5092236606  MEMB      83              0.0000000000
     11367        83  DOPC      C25            28.0111376253        2.5463485675      -12.1600977865  MEMB      83              0.0000000000
     11368        83  DOPC      H5R            28.1346895717        3.6381204155      -12.2659731225  MEMB      83              0.0000000000
     11369        83  DOPC      H5S            29.0368516506        2.1166881989      -12.1106745621  MEMB      83              0.0000000000
     11370        83  DOPC      C26            27.3114952767        2.3091489489      -10.8017252293  MEMB      83              0.0000000000
     11371        83  DOPC      H6R            27.6851545012        3.0627866134      -10.0732934868  MEMB      83              0.0000000000
     11372        83  DOPC      H6S            27.6712863926        1.3156846713      -10.4487888573  MEMB      83              0.0000000000
     11373        83  DOPC      C27            25.7674236717        2.2682738813      -10.7871559219  MEMB      83              0.0000000000
     11374        83  DOPC      H7R            25.5004522850        1.2956841922      -10.3335997718  MEMB      83              0.0000000000
     11375        83  DOPC      H7S            25.3667950581        2.2383648165      -11.8159538190  MEMB      83              0.0000000000
     11376        83  DOPC      C28            24.9686451852        3.2708375220       -9.9316271884  MEMB      83              0.0000000000
     11377        83  DOPC      H8R            25.3281794602        4.3046757442      -10.1009384827  MEMB      83              0.0000000000
     11378        83  DOPC      H8S            25.1193488155        3.0359985313       -8.8532744750  MEMB      83              0.0000000000
     11379        83  DOPC      C29            23.5178065821        3.1393429410      -10.3516098073  MEMB      83              0.0000000000
     11380        83  DOPC      H9R            23.2055661217        3.8514666202      -11.1314527332  MEMB      83              0.0000000000
     11381        83  DOPC      C210           22.6122793734        2.2197571561       -9.9571918625  MEMB      83              0.0000000000
     11382        83  DOPC      H10R           21.6250022192        2.2263928398      -10.4498688283  MEMB      83              0.0000000000
     11383        83  DOPC      C211           22.8034591098        1.0789118242       -8.9873640064  MEMB      83              0.0000000000
     11384        83  DOPC      H11R           22.7122804245        1.4605819561       -7.9578204831  MEMB      83              0.0000000000
     11385        83  DOPC      H11S           23.8397314082        0.7654865993       -9.0553898557  MEMB      83              0.0000000000
     11386        83  DOPC      C212           21.8469189732       -0.1436843158       -9.1131394309  MEMB      83              0.0000000000
     11387        83  DOPC      H12R           22.0986663956       -0.7988951291       -9.9655942369  MEMB      83              0.0000000000
     11388        83  DOPC      H12S           20.8482250556        0.2533822252       -9.3698684232  MEMB      83              0.0000000000
     11389        83  DOPC      C213           21.6716833682       -0.9816794601       -7.8191244786  MEMB      83              0.0000000000
     11390        83  DOPC      H13R           20.6109697219       -1.3185616741       -7.7581835254  MEMB      83              0.0000000000
     11391        83  DOPC      H13S           21.8499087978       -0.3327368907       -6.9370281036  MEMB      83              0.0000000000
     11392        83  DOPC      C214           22.5599692020       -2.2336397219       -7.7470494422  MEMB      83              0.0000000000
     11393        83  DOPC      H14R           23.6211190213       -1.9135833664       -7.7197198381  MEMB      83              0.0000000000
     11394        83  DOPC      H14S           22.4056007458       -2.8331866307       -8.6731010756  MEMB      83              0.0000000000
     11395        83  DOPC      C215           22.2949157013       -3.1560414193       -6.5410618591  MEMB      83              0.0000000000
     11396        83  DOPC      H15R           22.9515400590       -4.0502426578       -6.6396146672  MEMB      83              0.0000000000
     11397        83  DOPC      H15S           21.2404907496       -3.5136458223       -6.5685012916  MEMB      83              0.0000000000
     11398        83  DOPC      C216           22.5634950512       -2.5111136492       -5.1735644644  MEMB      83              0.0000000000
     11399        83  DOPC      H16R           21.6225803517       -2.0179298133       -4.8565903762  MEMB      83              0.0000000000
     11400        83  DOPC      H16S           23.3502224182       -1.7277870327       -5.2626831146  MEMB      83              0.0000000000
     11401        83  DOPC      C217           23.0121189214       -3.5132570740       -4.0967733404  MEMB      83              0.0000000000
     11402        83  DOPC      H17R           24.0488927789       -3.8415879784       -4.3406984340  MEMB      83              0.0000000000
     11403        83  DOPC      H17S           22.3602862701       -4.4149807463       -4.1355303999  MEMB      83              0.0000000000
     11404        83  DOPC      C218           22.9805992978       -2.9394963297       -2.6765420331  MEMB      83              0.0000000000
     11405        83  DOPC      H18R           21.9397043407       -2.7934591495       -2.3214799396  MEMB      83              0.0000000000
     11406        83  DOPC      H18S           23.5301692398       -1.9799136620       -2.6200329057  MEMB      83              0.0000000000
     11407        83  DOPC      H18T           23.4714195673       -3.6006860010       -1.9538539793  MEMB      83              0.0000000000
     11408        83  DOPC      C33            23.3540864106       -0.6522356143      -13.4948143643  MEMB      83              0.0000000000
     11409        83  DOPC      H3X            24.3127809643       -0.1436928565      -13.7494520524  MEMB      83              0.0000000000
     11410        83  DOPC      H3Y            22.9048705533       -1.0203218332      -14.4461357828  MEMB      83              0.0000000000
     11411        83  DOPC      C34            23.6634180380       -1.8237036590      -12.5484410767  MEMB      83              0.0000000000
     11412        83  DOPC      H4X            23.2437868714       -2.7441350225      -13.0169387955  MEMB      83              0.0000000000
     11413        83  DOPC      H4Y            23.1160337345       -1.6858351557      -11.5944511178  MEMB      83              0.0000000000
     11414        83  DOPC      C35            25.1681565583       -2.0771960822      -12.2764134312  MEMB      83              0.0000000000
     11415        83  DOPC      H5X            25.6943835750       -2.0863295514      -13.2541856717  MEMB      83              0.0000000000
     11416        83  DOPC      H5Y            25.2535361066       -3.0963116532      -11.8378606659  MEMB      83              0.0000000000
     11417        83  DOPC      C36            25.8955913603       -1.1024103616      -11.3091426602  MEMB      83              0.0000000000
     11418        83  DOPC      H6X            26.9806786875       -1.3276977222      -11.2937383873  MEMB      83              0.0000000000
     11419        83  DOPC      H6Y            25.7693435353       -0.0924932839      -11.7397620760  MEMB      83              0.0000000000
     11420        83  DOPC      C37            25.3358272621       -1.2086444752       -9.8752326598  MEMB      83              0.0000000000
     11421        83  DOPC      H7X            24.3059647579       -0.8301022486       -9.9670461577  MEMB      83              0.0000000000
     11422        83  DOPC      H7Y            25.1830275966       -2.2768743194       -9.6756054857  MEMB      83              0.0000000000
     11423        83  DOPC      C38            26.0249610489       -0.6085092745       -8.5790714775  MEMB      83              0.0000000000
     11424        83  DOPC      H8X            25.5745481800       -1.2447638443       -7.7845270306  MEMB      83              0.0000000000
     11425        83  DOPC      H8Y            25.6109943792        0.3984838775       -8.3888379312  MEMB      83              0.0000000000
     11426        83  DOPC      C39            27.5009665388       -0.4942301132       -8.2476303869  MEMB      83              0.0000000000
     11427        83  DOPC      H9X            28.1827047209       -0.3487819305       -9.0998820131  MEMB      83              0.0000000000
     11428        83  DOPC      C310           28.0235340461       -0.5729919792       -6.9996031024  MEMB      83              0.0000000000
     11429        83  DOPC      H10X           29.1157115275       -0.4777266227       -6.8667450195  MEMB      83              0.0000000000
     11430        83  DOPC      C311           27.2736766729       -0.7908211705       -5.6981656080  MEMB      83              0.0000000000
     11431        83  DOPC      H11X           26.2051607205       -1.0621226827       -5.8453211665  MEMB      83              0.0000000000
     11432        83  DOPC      H11Y           27.2811948397        0.1313929669       -5.0692242386  MEMB      83              0.0000000000
     11433        83  DOPC      C312           27.9598103528       -1.9139744451       -4.8967633475  MEMB      83              0.0000000000
     11434        83  DOPC      H12X           28.8473967816       -1.4507050920       -4.4158693163  MEMB      83              0.0000000000
     11435        83  DOPC      H12Y           28.3394365040       -2.7189939346       -5.5673579796  MEMB      83              0.0000000000
     11436        83  DOPC      C313           27.0823366590       -2.5996845580       -3.8311029572  MEMB      83              0.0000000000
     11437        83  DOPC      H13X           26.2162149580       -3.1078707907       -4.3062260086  MEMB      83              0.0000000000
     11438        83  DOPC      H13Y           27.7020631049       -3.4001477781       -3.3604241604  MEMB      83              0.0000000000
     11439        83  DOPC      C314           26.5887868123       -1.6613427985       -2.7201656695  MEMB      83              0.0000000000
     11440        83  DOPC      H14X           27.3181758675       -0.8284148099       -2.6039584166  MEMB      83              0.0000000000
     11441        83  DOPC      H14Y           25.6105372685       -1.2172556733       -3.0010673354  MEMB      83              0.0000000000
     11442        83  DOPC      C315           26.4807255505       -2.3729734975       -1.3644055950  MEMB      83              0.0000000000
     11443        83  DOPC      H15X           27.4679090584       -2.8184980296       -1.1487439330  MEMB      83              0.0000000000
     11444        83  DOPC      H15Y           25.7751081290       -3.2200805581       -1.4290359083  MEMB      83              0.0000000000
     11445        83  DOPC      C316           26.0904906279       -1.4418126862       -0.2090457827  MEMB      83              0.0000000000
     11446        83  DOPC      H16X           25.9023814736       -0.4317871983       -0.6234402692  MEMB      83              0.0000000000
     11447        83  DOPC      H16Y           25.1478707042       -1.7984404948        0.2618152160  MEMB      83              0.0000000000
     11448        83  DOPC      C317           27.1977788473       -1.2944128492        0.8403603765  MEMB      83              0.0000000000
     11449        83  DOPC      H17X           26.7620027098       -0.8569164398        1.7667259744  MEMB      83              0.0000000000
     11450        83  DOPC      H17Y           27.5943960213       -2.2987771027        1.1089703811  MEMB      83              0.0000000000
     11451        83  DOPC      C318           28.3235697834       -0.3833512115        0.3404476715  MEMB      83              0.0000000000
     11452        83  DOPC      H18X           29.1695085441       -0.3553979323        1.0641820165  MEMB      83              0.0000000000
     11453        83  DOPC      H18Y           28.7034620172       -0.7299826527       -0.6422660435  MEMB      83              0.0000000000
     11454        83  DOPC      H18Z           27.9325342553        0.6450805318        0.1829924953  MEMB      83              0.0000000000
     11455        84  DOPC      N             -19.5131713743      -18.3153584960      -18.9566371926  MEMB      84              0.0000000000
     11456        84  DOPC      C12           -19.0333500727      -19.4245708679      -19.8865291132  MEMB      84              0.0000000000
     11457        84  DOPC      H12A          -17.9567449096      -19.2960620325      -20.0453233967  MEMB      84              0.0000000000
     11458        84  DOPC      H12B          -19.5115082856      -19.3315085935      -20.8504637010  MEMB      84              0.0000000000
     11459        84  DOPC      C13           -20.9396288604      -18.5494396716      -18.5723424589  MEMB      84              0.0000000000
     11460        84  DOPC      H13A          -21.3428041133      -17.6860785621      -18.0541451257  MEMB      84              0.0000000000
     11461        84  DOPC      H13B          -21.5448618074      -18.6937468820      -19.4616770847  MEMB      84              0.0000000000
     11462        84  DOPC      H13C          -20.9980182306      -19.4260070404      -17.9319745744  MEMB      84              0.0000000000
     11463        84  DOPC      C14           -19.3785145674      -16.9660569489      -19.5964259059  MEMB      84              0.0000000000
     11464        84  DOPC      H14A          -20.1240743852      -16.7795344108      -20.3677722951  MEMB      84              0.0000000000
     11465        84  DOPC      H14B          -19.5837316222      -16.1911247204      -18.8601023672  MEMB      84              0.0000000000
     11466        84  DOPC      H14C          -18.3965469443      -16.7791102305      -20.0061344721  MEMB      84              0.0000000000
     11467        84  DOPC      C15           -18.6647167379      -18.2905075155      -17.7150385630  MEMB      84              0.0000000000
     11468        84  DOPC      H15A          -17.6381412742      -18.0375763642      -17.9603309935  MEMB      84              0.0000000000
     11469        84  DOPC      H15B          -18.6085396641      -19.2814741100      -17.2628019024  MEMB      84              0.0000000000
     11470        84  DOPC      H15C          -19.0311399821      -17.5997011878      -16.9686205071  MEMB      84              0.0000000000
     11471        84  DOPC      C11           -19.1988462103      -20.8751500600      -19.3723141173  MEMB      84              0.0000000000
     11472        84  DOPC      H11A          -20.2322089667      -21.0646443114      -19.0096065495  MEMB      84              0.0000000000
     11473        84  DOPC      H11B          -19.0583644737      -21.5991321135      -20.2157582397  MEMB      84              0.0000000000
     11474        84  DOPC      P             -16.7682910089      -21.3933404781      -18.7864450683  MEMB      84              0.0000000000
     11475        84  DOPC      O13           -16.2787337288      -20.1351219222      -19.4102048657  MEMB      84              0.0000000000
     11476        84  DOPC      O14           -16.8559285846      -22.5602574226      -19.6914698458  MEMB      84              0.0000000000
     11477        84  DOPC      O12           -18.2688287885      -21.1005519434      -18.3035458297  MEMB      84              0.0000000000
     11478        84  DOPC      O11           -15.9373862204      -21.7680300627      -17.5126095273  MEMB      84              0.0000000000
     11479        84  DOPC      C1            -15.4174694810      -20.8656318759      -16.5644163587  MEMB      84              0.0000000000
     11480        84  DOPC      HA            -15.3333098404      -19.8315207230      -16.9644419848  MEMB      84              0.0000000000
     11481        84  DOPC      HB            -14.3932841247      -21.2016860175      -16.2762400822  MEMB      84              0.0000000000
     11482        84  DOPC      C2            -16.2875750308      -20.8874279885      -15.2939661499  MEMB      84              0.0000000000
     11483        84  DOPC      HS            -16.1433699737      -21.8956920263      -14.8278049730  MEMB      84              0.0000000000
     11484        84  DOPC      O21           -17.6690065820      -20.5983759586      -15.6119952101  MEMB      84              0.0000000000
     11485        84  DOPC      C21           -18.4806681383      -21.6472703458      -15.4517293640  MEMB      84              0.0000000000
     11486        84  DOPC      O22           -18.1566519496      -22.7777520011      -15.1698094102  MEMB      84              0.0000000000
     11487        84  DOPC      C22           -19.9394474619      -21.1589799122      -15.5318518792  MEMB      84              0.0000000000
     11488        84  DOPC      H2R           -20.2760662818      -21.3722994385      -16.5685327127  MEMB      84              0.0000000000
     11489        84  DOPC      H2S           -19.9602302258      -20.0655684522      -15.3647737280  MEMB      84              0.0000000000
     11490        84  DOPC      C3            -15.7641047833      -19.8514749689      -14.2783290997  MEMB      84              0.0000000000
     11491        84  DOPC      HX            -15.3800497310      -18.9560071327      -14.8168935512  MEMB      84              0.0000000000
     11492        84  DOPC      HY            -14.9000550223      -20.3213008468      -13.7549278285  MEMB      84              0.0000000000
     11493        84  DOPC      O31           -16.7717405661      -19.5148863213      -13.3155272486  MEMB      84              0.0000000000
     11494        84  DOPC      C31           -17.5362167645      -18.4710478944      -13.5916008171  MEMB      84              0.0000000000
     11495        84  DOPC      O32           -17.4627048830      -17.7617703457      -14.5799303142  MEMB      84              0.0000000000
     11496        84  DOPC      C32           -18.4651037837      -18.2360234144      -12.4042676606  MEMB      84              0.0000000000
     11497        84  DOPC      H2X           -18.7923291476      -19.2202901678      -12.0324344710  MEMB      84              0.0000000000
     11498        84  DOPC      H2Y           -17.8823430584      -17.7400690945      -11.6011381579  MEMB      84              0.0000000000
     11499        84  DOPC      C23           -20.9109436616      -21.8595192700      -14.5413569017  MEMB      84              0.0000000000
     11500        84  DOPC      H3R           -20.7599630441      -22.9626830168      -14.5440031126  MEMB      84              0.0000000000
     11501        84  DOPC      H3S           -21.9422135922      -21.6750598849      -14.9251876882  MEMB      84              0.0000000000
     11502        84  DOPC      C24           -20.8855240617      -21.3216954886      -13.0948641814  MEMB      84              0.0000000000
     11503        84  DOPC      H4R           -21.7831514512      -21.7176808100      -12.5652617188  MEMB      84              0.0000000000
     11504        84  DOPC      H4S           -20.9612723114      -20.2131022647      -13.1006005987  MEMB      84              0.0000000000
     11505        84  DOPC      C25           -19.6537808351      -21.7647914547      -12.2887975249  MEMB      84              0.0000000000
     11506        84  DOPC      H5R           -18.7540478197      -21.2868444591      -12.7276129600  MEMB      84              0.0000000000
     11507        84  DOPC      H5S           -19.5324905517      -22.8577723634      -12.4372848071  MEMB      84              0.0000000000
     11508        84  DOPC      C26           -19.7440351150      -21.4324070505      -10.7827972444  MEMB      84              0.0000000000
     11509        84  DOPC      H6R           -20.6775216737      -21.8824911110      -10.3747337331  MEMB      84              0.0000000000
     11510        84  DOPC      H6S           -19.8581113127      -20.3356312754      -10.6649574667  MEMB      84              0.0000000000
     11511        84  DOPC      C27           -18.5650766035      -21.9073782649       -9.8968189596  MEMB      84              0.0000000000
     11512        84  DOPC      H7R           -18.7578608730      -22.9595222908       -9.6010490331  MEMB      84              0.0000000000
     11513        84  DOPC      H7S           -18.5704249352      -21.3298980874       -8.9461032325  MEMB      84              0.0000000000
     11514        84  DOPC      C28           -17.1474091125      -21.8938673137      -10.5120757263  MEMB      84              0.0000000000
     11515        84  DOPC      H8R           -17.1896718036      -22.1811196406      -11.5840307326  MEMB      84              0.0000000000
     11516        84  DOPC      H8S           -16.5813700802      -22.7180020029      -10.0199714818  MEMB      84              0.0000000000
     11517        84  DOPC      C29           -16.3933241540      -20.5984542270      -10.3427815819  MEMB      84              0.0000000000
     11518        84  DOPC      H9R           -16.4954956015      -19.8797431583      -11.1631593143  MEMB      84              0.0000000000
     11519        84  DOPC      C210          -15.6735496329      -20.2240758169       -9.2732547351  MEMB      84              0.0000000000
     11520        84  DOPC      H10R          -15.2111977991      -19.2276026837       -9.2779553743  MEMB      84              0.0000000000
     11521        84  DOPC      C211          -15.4693859599      -21.0167748925       -8.0061744493  MEMB      84              0.0000000000
     11522        84  DOPC      H11R          -14.3975696041      -21.0555741754       -7.7114770538  MEMB      84              0.0000000000
     11523        84  DOPC      H11S          -15.8148705197      -22.0684393620       -8.1214561152  MEMB      84              0.0000000000
     11524        84  DOPC      C212          -16.2999316703      -20.3669985581       -6.8875869414  MEMB      84              0.0000000000
     11525        84  DOPC      H12R          -16.4345989097      -21.1003915582       -6.0601400282  MEMB      84              0.0000000000
     11526        84  DOPC      H12S          -17.3108797772      -20.1214870341       -7.2850119778  MEMB      84              0.0000000000
     11527        84  DOPC      C213          -15.6819897213      -19.0919008019       -6.2940354823  MEMB      84              0.0000000000
     11528        84  DOPC      H13R          -15.2546451879      -18.4504144229       -7.0938182618  MEMB      84              0.0000000000
     11529        84  DOPC      H13S          -14.8648658820      -19.4151967337       -5.6195071552  MEMB      84              0.0000000000
     11530        84  DOPC      C214          -16.6970687870      -18.2783803300       -5.4914547666  MEMB      84              0.0000000000
     11531        84  DOPC      H14R          -17.1040060086      -18.9422003479       -4.6937979699  MEMB      84              0.0000000000
     11532        84  DOPC      H14S          -17.5315491972      -17.9872324123       -6.1677426237  MEMB      84              0.0000000000
     11533        84  DOPC      C215          -16.1637022752      -17.0066192193       -4.8223828275  MEMB      84              0.0000000000
     11534        84  DOPC      H15R          -16.1504639891      -16.1776201870       -5.5656220252  MEMB      84              0.0000000000
     11535        84  DOPC      H15S          -15.1192025194      -17.1615762407       -4.4837682212  MEMB      84              0.0000000000
     11536        84  DOPC      C216          -17.0350175058      -16.6253341325       -3.6158252198  MEMB      84              0.0000000000
     11537        84  DOPC      H16R          -16.6399441979      -15.7000417777       -3.1483973029  MEMB      84              0.0000000000
     11538        84  DOPC      H16S          -16.9520142834      -17.4223514932       -2.8432113903  MEMB      84              0.0000000000
     11539        84  DOPC      C217          -18.5162944502      -16.4640811752       -3.9964988723  MEMB      84              0.0000000000
     11540        84  DOPC      H17R          -18.9030539557      -17.4320550988       -4.3822453791  MEMB      84              0.0000000000
     11541        84  DOPC      H17S          -18.6024431494      -15.7342464823       -4.8347000324  MEMB      84              0.0000000000
     11542        84  DOPC      C218          -19.4154462513      -16.0253584472       -2.8404598272  MEMB      84              0.0000000000
     11543        84  DOPC      H18R          -18.9738554335      -16.3097996527       -1.8617787346  MEMB      84              0.0000000000
     11544        84  DOPC      H18S          -20.4051506004      -16.5168531923       -2.9214908994  MEMB      84              0.0000000000
     11545        84  DOPC      H18T          -19.5676699666      -14.9238550738       -2.8553122058  MEMB      84              0.0000000000
     11546        84  DOPC      C33           -19.6904532779      -17.3926397583      -12.7988812589  MEMB      84              0.0000000000
     11547        84  DOPC      H3X           -20.1082204759      -17.7685469317      -13.7629119493  MEMB      84              0.0000000000
     11548        84  DOPC      H3Y           -19.3553238904      -16.3425893461      -12.9577666083  MEMB      84              0.0000000000
     11549        84  DOPC      C34           -20.8418484055      -17.3952881370      -11.7742739372  MEMB      84              0.0000000000
     11550        84  DOPC      H4X           -21.2613582114      -18.4221678951      -11.6899249818  MEMB      84              0.0000000000
     11551        84  DOPC      H4Y           -21.6478941077      -16.7367412734      -12.1682026111  MEMB      84              0.0000000000
     11552        84  DOPC      C35           -20.4570904319      -16.9073817741      -10.3700630626  MEMB      84              0.0000000000
     11553        84  DOPC      H5X           -19.9803341844      -15.9051804302      -10.4396640708  MEMB      84              0.0000000000
     11554        84  DOPC      H5Y           -19.7072837416      -17.6177171913       -9.9602656043  MEMB      84              0.0000000000
     11555        84  DOPC      C36           -21.6835588821      -16.8309201247       -9.4444855373  MEMB      84              0.0000000000
     11556        84  DOPC      H6X           -22.2965647971      -15.9457744653       -9.7298428534  MEMB      84              0.0000000000
     11557        84  DOPC      H6Y           -22.3146649849      -17.7302460845       -9.6217870630  MEMB      84              0.0000000000
     11558        84  DOPC      C37           -21.3643765570      -16.7542937608       -7.9392990633  MEMB      84              0.0000000000
     11559        84  DOPC      H7X           -20.8951814304      -15.7679280233       -7.7222057719  MEMB      84              0.0000000000
     11560        84  DOPC      H7Y           -22.3209340683      -16.7921813531       -7.3686604428  MEMB      84              0.0000000000
     11561        84  DOPC      C38           -20.4159742561      -17.8454288387       -7.3973859114  MEMB      84              0.0000000000
     11562        84  DOPC      H8X           -20.3817418708      -17.7074851950       -6.2915799519  MEMB      84              0.0000000000
     11563        84  DOPC      H8Y           -19.3910801282      -17.6308647555       -7.7726315804  MEMB      84              0.0000000000
     11564        84  DOPC      C39           -20.7731529539      -19.2712377268       -7.7420238741  MEMB      84              0.0000000000
     11565        84  DOPC      H9X           -21.3633775269      -19.4239056638       -8.6589857171  MEMB      84              0.0000000000
     11566        84  DOPC      C310          -20.3898255969      -20.3395987268       -7.0222741169  MEMB      84              0.0000000000
     11567        84  DOPC      H10X          -20.6523663775      -21.3517012367       -7.3696614223  MEMB      84              0.0000000000
     11568        84  DOPC      C311          -19.5495979687      -20.2705938730       -5.7734831315  MEMB      84              0.0000000000
     11569        84  DOPC      H11X          -19.0914651951      -19.2748395130       -5.6475028486  MEMB      84              0.0000000000
     11570        84  DOPC      H11Y          -18.6975154101      -20.9584928923       -5.9071435982  MEMB      84              0.0000000000
     11571        84  DOPC      C312          -20.2805647454      -20.5956628720       -4.4577253646  MEMB      84              0.0000000000
     11572        84  DOPC      H12X          -20.6351861585      -21.6503896137       -4.5196122329  MEMB      84              0.0000000000
     11573        84  DOPC      H12Y          -21.1644578192      -19.9443179828       -4.3302661321  MEMB      84              0.0000000000
     11574        84  DOPC      C313          -19.4292420738      -20.4378931873       -3.1804651438  MEMB      84              0.0000000000
     11575        84  DOPC      H13X          -18.3536869508      -20.6180495063       -3.3987599928  MEMB      84              0.0000000000
     11576        84  DOPC      H13Y          -19.5213168551      -19.3910091230       -2.8182751734  MEMB      84              0.0000000000
     11577        84  DOPC      C314          -19.8941338653      -21.4386872387       -2.1079696937  MEMB      84              0.0000000000
     11578        84  DOPC      H14X          -20.9604326196      -21.2264432486       -1.8728106649  MEMB      84              0.0000000000
     11579        84  DOPC      H14Y          -19.8540351609      -22.4637563258       -2.5449456812  MEMB      84              0.0000000000
     11580        84  DOPC      C315          -19.0774348102      -21.4626467288       -0.8041240008  MEMB      84              0.0000000000
     11581        84  DOPC      H15X          -18.0670837913      -21.8818146221       -1.0148039330  MEMB      84              0.0000000000
     11582        84  DOPC      H15Y          -19.5785302552      -22.1655366663       -0.0993742338  MEMB      84              0.0000000000
     11583        84  DOPC      C316          -18.9039225723      -20.1012256499       -0.1114612152  MEMB      84              0.0000000000
     11584        84  DOPC      H16X          -18.4400789368      -20.2715647775        0.8861358356  MEMB      84              0.0000000000
     11585        84  DOPC      H16Y          -18.1947734372      -19.4857363635       -0.7093912424  MEMB      84              0.0000000000
     11586        84  DOPC      C317          -20.1989809932      -19.2984459467        0.0901567069  MEMB      84              0.0000000000
     11587        84  DOPC      H17X          -19.9185712178      -18.3217938439        0.5477889707  MEMB      84              0.0000000000
     11588        84  DOPC      H17Y          -20.6500091678      -19.0673837560       -0.8995844100  MEMB      84              0.0000000000
     11589        84  DOPC      C318          -21.2488863346      -19.9800442246        0.9722620264  MEMB      84              0.0000000000
     11590        84  DOPC      H18X          -21.5576865426      -20.9603533922        0.5573933645  MEMB      84              0.0000000000
     11591        84  DOPC      H18Y          -20.8394064208      -20.1448574700        1.9919359685  MEMB      84              0.0000000000
     11592        84  DOPC      H18Z          -22.1509635613      -19.3350022402        1.0562176446  MEMB      84              0.0000000000
     11593        85  DOPC      N              -0.6486604617       27.1317954502      -21.3939344733  MEMB      85              0.0000000000
     11594        85  DOPC      C12            -0.3205856471       25.7207725505      -20.9066001509  MEMB      85              0.0000000000
     11595        85  DOPC      H12A            0.6316788365       25.7412923959      -20.3752533153  MEMB      85              0.0000000000
     11596        85  DOPC      H12B           -0.2096401959       25.0378752983      -21.7339477279  MEMB      85              0.0000000000
     11597        85  DOPC      C13            -2.0918753525       27.2291040684      -21.7939001998  MEMB      85              0.0000000000
     11598        85  DOPC      H13A           -2.7139831555       26.9664486378      -20.9414417712  MEMB      85              0.0000000000
     11599        85  DOPC      H13B           -2.3826725599       28.2417524241      -22.0743338327  MEMB      85              0.0000000000
     11600        85  DOPC      H13C           -2.3298660488       26.5577107890      -22.6028431722  MEMB      85              0.0000000000
     11601        85  DOPC      C14             0.2181404838       27.4970032930      -22.5388572233  MEMB      85              0.0000000000
     11602        85  DOPC      H14A            0.0879047031       28.5335407456      -22.8473654209  MEMB      85              0.0000000000
     11603        85  DOPC      H14B            1.2715578065       27.3833613091      -22.3082570750  MEMB      85              0.0000000000
     11604        85  DOPC      H14C            0.0075943580       26.8902977045      -23.4113098467  MEMB      85              0.0000000000
     11605        85  DOPC      C15            -0.4213747812       28.1299256334      -20.2960656376  MEMB      85              0.0000000000
     11606        85  DOPC      H15A            0.6311376809       28.2511416170      -20.0877068415  MEMB      85              0.0000000000
     11607        85  DOPC      H15B           -0.8673344570       27.7932716899      -19.3553891057  MEMB      85              0.0000000000
     11608        85  DOPC      H15C           -0.8538478589       29.0883011700      -20.5472568673  MEMB      85              0.0000000000
     11609        85  DOPC      C11            -1.2851754602       25.1379785867      -19.8706159696  MEMB      85              0.0000000000
     11610        85  DOPC      H11A           -2.3508744305       25.2187982815      -20.1899154846  MEMB      85              0.0000000000
     11611        85  DOPC      H11B           -1.0557668143       24.0634199769      -19.6941848006  MEMB      85              0.0000000000
     11612        85  DOPC      P              -1.9177110686       25.9639247780      -17.4304269669  MEMB      85              0.0000000000
     11613        85  DOPC      O13            -3.3111612911       25.6385204652      -17.8041070365  MEMB      85              0.0000000000
     11614        85  DOPC      O14            -1.6555294810       27.2979660173      -16.8700597740  MEMB      85              0.0000000000
     11615        85  DOPC      O12            -1.0127728039       25.8807984545      -18.7120133193  MEMB      85              0.0000000000
     11616        85  DOPC      O11            -1.3020500705       24.8469324266      -16.4926975353  MEMB      85              0.0000000000
     11617        85  DOPC      C1              0.0435583168       25.0012429371      -16.0113786262  MEMB      85              0.0000000000
     11618        85  DOPC      HA              0.6336426047       25.7517144652      -16.5895417922  MEMB      85              0.0000000000
     11619        85  DOPC      HB              0.5582640246       24.0205548931      -16.1348806027  MEMB      85              0.0000000000
     11620        85  DOPC      C2              0.1360519549       25.3822417396      -14.4973871083  MEMB      85              0.0000000000
     11621        85  DOPC      HS              1.2207416352       25.4841477599      -14.2600958341  MEMB      85              0.0000000000
     11622        85  DOPC      O21            -0.4537290768       24.2935467477      -13.7724613017  MEMB      85              0.0000000000
     11623        85  DOPC      C21            -0.2032900358       24.1984474028      -12.4968083843  MEMB      85              0.0000000000
     11624        85  DOPC      O22             0.6092178343       24.8368806755      -11.8596425644  MEMB      85              0.0000000000
     11625        85  DOPC      C22            -1.0261240315       23.0454299770      -11.9423378155  MEMB      85              0.0000000000
     11626        85  DOPC      H2R            -0.9525626083       23.0364852843      -10.8409395635  MEMB      85              0.0000000000
     11627        85  DOPC      H2S            -0.4917781517       22.1722269512      -12.3476057135  MEMB      85              0.0000000000
     11628        85  DOPC      C3             -0.5551738751       26.7458937336      -14.1431697412  MEMB      85              0.0000000000
     11629        85  DOPC      HX             -1.6591969155       26.5846030785      -14.1835323922  MEMB      85              0.0000000000
     11630        85  DOPC      HY             -0.2915159420       27.4838206722      -14.9310527872  MEMB      85              0.0000000000
     11631        85  DOPC      O31            -0.0809565604       27.2825053308      -12.8880380295  MEMB      85              0.0000000000
     11632        85  DOPC      C31            -0.9641913680       27.8867538876      -12.1102349446  MEMB      85              0.0000000000
     11633        85  DOPC      O32            -2.1508931039       28.0268172842      -12.3361851698  MEMB      85              0.0000000000
     11634        85  DOPC      C32            -0.2914478083       28.3880079079      -10.8224033967  MEMB      85              0.0000000000
     11635        85  DOPC      H2X             0.1248692363       29.3915406998      -11.0319891508  MEMB      85              0.0000000000
     11636        85  DOPC      H2Y            -1.1073011968       28.4813065618      -10.0763328984  MEMB      85              0.0000000000
     11637        85  DOPC      C23            -2.4728905354       22.9330656726      -12.4777185807  MEMB      85              0.0000000000
     11638        85  DOPC      H3R            -2.9045728359       21.9818834355      -12.0899325849  MEMB      85              0.0000000000
     11639        85  DOPC      H3S            -2.4461280368       22.8410411567      -13.5901410636  MEMB      85              0.0000000000
     11640        85  DOPC      C24            -3.3928403234       24.1026303201      -12.1107225009  MEMB      85              0.0000000000
     11641        85  DOPC      H4R            -4.4034769606       23.8998244341      -12.5398985514  MEMB      85              0.0000000000
     11642        85  DOPC      H4S            -3.0058977563       25.0212296002      -12.6119427274  MEMB      85              0.0000000000
     11643        85  DOPC      C25            -3.5421227739       24.3561567376      -10.6028573325  MEMB      85              0.0000000000
     11644        85  DOPC      H5R            -2.6193768412       24.0639515648      -10.0589882947  MEMB      85              0.0000000000
     11645        85  DOPC      H5S            -4.3715980700       23.7207147856      -10.2172520504  MEMB      85              0.0000000000
     11646        85  DOPC      C26            -3.8133753373       25.8347175026      -10.2741823825  MEMB      85              0.0000000000
     11647        85  DOPC      H6R            -4.6012238291       26.2222749552      -10.9596158413  MEMB      85              0.0000000000
     11648        85  DOPC      H6S            -2.8877636945       26.4173373459      -10.4734047106  MEMB      85              0.0000000000
     11649        85  DOPC      C27            -4.2479320238       26.0322286848       -8.8131881170  MEMB      85              0.0000000000
     11650        85  DOPC      H7R            -3.4832035962       25.5865944930       -8.1382066359  MEMB      85              0.0000000000
     11651        85  DOPC      H7S            -5.1864378309       25.4434505793       -8.6854814268  MEMB      85              0.0000000000
     11652        85  DOPC      C28            -4.4635481637       27.5045163491       -8.4059043867  MEMB      85              0.0000000000
     11653        85  DOPC      H8R            -4.7861043399       28.0910422708       -9.2950705971  MEMB      85              0.0000000000
     11654        85  DOPC      H8S            -3.4849509995       27.9295262505       -8.0853657464  MEMB      85              0.0000000000
     11655        85  DOPC      C29            -5.5186795672       27.6203474317       -7.3337311579  MEMB      85              0.0000000000
     11656        85  DOPC      H9R            -6.5338020982       27.3637780245       -7.6750902540  MEMB      85              0.0000000000
     11657        85  DOPC      C210           -5.3438292081       27.9362103102       -6.0394398293  MEMB      85              0.0000000000
     11658        85  DOPC      H10R           -6.2254561694       28.0171935393       -5.3819132143  MEMB      85              0.0000000000
     11659        85  DOPC      C211           -4.0413690243       28.2492994148       -5.3650575690  MEMB      85              0.0000000000
     11660        85  DOPC      H11R           -4.2358283527       28.8747658846       -4.4652020143  MEMB      85              0.0000000000
     11661        85  DOPC      H11S           -3.3944257421       28.8599804055       -6.0305645463  MEMB      85              0.0000000000
     11662        85  DOPC      C212           -3.2468182364       27.0051780577       -4.9316153503  MEMB      85              0.0000000000
     11663        85  DOPC      H12R           -2.9455557315       26.4223042993       -5.8296291967  MEMB      85              0.0000000000
     11664        85  DOPC      H12S           -3.8344927361       26.3356895656       -4.2904407101  MEMB      85              0.0000000000
     11665        85  DOPC      C213           -2.0328261722       27.4009268449       -4.1026268590  MEMB      85              0.0000000000
     11666        85  DOPC      H13R           -1.8481071582       28.4507636274       -4.3805698349  MEMB      85              0.0000000000
     11667        85  DOPC      H13S           -1.1513336263       26.7688064130       -4.3420723205  MEMB      85              0.0000000000
     11668        85  DOPC      C214           -2.2784113879       27.4656088339       -2.5951468966  MEMB      85              0.0000000000
     11669        85  DOPC      H14R           -2.4422785775       26.4626720624       -2.1856677517  MEMB      85              0.0000000000
     11670        85  DOPC      H14S           -3.2438259795       27.9810389772       -2.4364536791  MEMB      85              0.0000000000
     11671        85  DOPC      C215           -1.1238655591       28.2028740822       -1.8892987314  MEMB      85              0.0000000000
     11672        85  DOPC      H15R           -0.8642433773       29.0959696086       -2.4930567136  MEMB      85              0.0000000000
     11673        85  DOPC      H15S           -0.2144058537       27.5661450116       -1.8973063000  MEMB      85              0.0000000000
     11674        85  DOPC      C216           -1.4187612390       28.6989820172       -0.4642194255  MEMB      85              0.0000000000
     11675        85  DOPC      H16R           -0.5501143780       29.2944610555       -0.1008364273  MEMB      85              0.0000000000
     11676        85  DOPC      H16S           -1.5325567354       27.8336281461        0.2141675133  MEMB      85              0.0000000000
     11677        85  DOPC      C217           -2.6753562622       29.5651148640       -0.3608170290  MEMB      85              0.0000000000
     11678        85  DOPC      H17R           -2.6091141161       30.1868317815        0.5612242995  MEMB      85              0.0000000000
     11679        85  DOPC      H17S           -3.5425012430       28.8858149743       -0.2160004049  MEMB      85              0.0000000000
     11680        85  DOPC      C218           -2.8895424923       30.4710923459       -1.5803517207  MEMB      85              0.0000000000
     11681        85  DOPC      H18R           -3.6564542329       31.2342078846       -1.3712673484  MEMB      85              0.0000000000
     11682        85  DOPC      H18S           -3.2552493930       29.9352574952       -2.4742365715  MEMB      85              0.0000000000
     11683        85  DOPC      H18T           -1.9399848131       30.9728597206       -1.8573844229  MEMB      85              0.0000000000
     11684        85  DOPC      C33             0.8169971516       27.4580061180      -10.2593732371  MEMB      85              0.0000000000
     11685        85  DOPC      H3X             1.7152960915       27.5359131022      -10.9149170600  MEMB      85              0.0000000000
     11686        85  DOPC      H3Y             0.4588515782       26.4132263133      -10.2884972956  MEMB      85              0.0000000000
     11687        85  DOPC      C34             1.2214694625       27.7001202804       -8.7970957608  MEMB      85              0.0000000000
     11688        85  DOPC      H4X             1.4409964605       28.7850436341       -8.6811939687  MEMB      85              0.0000000000
     11689        85  DOPC      H4Y             2.1648732119       27.1498612868       -8.5773468760  MEMB      85              0.0000000000
     11690        85  DOPC      C35             0.1484281438       27.2877539231       -7.7675412156  MEMB      85              0.0000000000
     11691        85  DOPC      H5X            -0.8163707678       27.7514557435       -8.0661318005  MEMB      85              0.0000000000
     11692        85  DOPC      H5Y             0.4404520502       27.6979310515       -6.7760100825  MEMB      85              0.0000000000
     11693        85  DOPC      C36            -0.1184191036       25.7907874052       -7.5552197253  MEMB      85              0.0000000000
     11694        85  DOPC      H6X            -1.1983053393       25.6759875233       -7.3016667862  MEMB      85              0.0000000000
     11695        85  DOPC      H6Y             0.0663990103       25.2199803905       -8.4889703951  MEMB      85              0.0000000000
     11696        85  DOPC      C37             0.6871885920       25.2139785969       -6.3808866950  MEMB      85              0.0000000000
     11697        85  DOPC      H7X             1.7664471036       25.3658753341       -6.6091399442  MEMB      85              0.0000000000
     11698        85  DOPC      H7Y             0.4633267657       25.7715157448       -5.4452655084  MEMB      85              0.0000000000
     11699        85  DOPC      C38             0.4359460715       23.7121569096       -6.1678563485  MEMB      85              0.0000000000
     11700        85  DOPC      H8X             1.2832765305       23.3027026486       -5.5772068605  MEMB      85              0.0000000000
     11701        85  DOPC      H8Y             0.5136212668       23.2418525430       -7.1684825205  MEMB      85              0.0000000000
     11702        85  DOPC      C39            -0.8986906394       23.3585833038       -5.5513371407  MEMB      85              0.0000000000
     11703        85  DOPC      H9X            -1.7753895735       23.5474058040       -6.1923092973  MEMB      85              0.0000000000
     11704        85  DOPC      C310           -1.0931792801       22.8513636011       -4.3178037090  MEMB      85              0.0000000000
     11705        85  DOPC      H10X           -2.1149508685       22.5906679592       -4.0017492909  MEMB      85              0.0000000000
     11706        85  DOPC      C311           -0.0170401094       22.5409022056       -3.3048102480  MEMB      85              0.0000000000
     11707        85  DOPC      H11X            0.9508440350       23.0221637717       -3.5734853584  MEMB      85              0.0000000000
     11708        85  DOPC      H11Y            0.1650588167       21.4447003078       -3.2561390726  MEMB      85              0.0000000000
     11709        85  DOPC      C312           -0.3594608953       23.0395753784       -1.8913928870  MEMB      85              0.0000000000
     11710        85  DOPC      H12X            0.4711863236       22.7695767073       -1.2033631641  MEMB      85              0.0000000000
     11711        85  DOPC      H12Y           -1.2817175678       22.5465308125       -1.5138631639  MEMB      85              0.0000000000
     11712        85  DOPC      C313           -0.5238281358       24.5611638263       -1.8402471712  MEMB      85              0.0000000000
     11713        85  DOPC      H13X            0.2699175161       25.0414323646       -2.4527801116  MEMB      85              0.0000000000
     11714        85  DOPC      H13Y           -1.4942481048       24.7848888334       -2.3280732776  MEMB      85              0.0000000000
     11715        85  DOPC      C314           -0.4796583591       25.1211527566       -0.4085778817  MEMB      85              0.0000000000
     11716        85  DOPC      H14X            0.2379660538       24.5206756224        0.1922647852  MEMB      85              0.0000000000
     11717        85  DOPC      H14Y           -0.1345304289       26.1694810170       -0.3966358706  MEMB      85              0.0000000000
     11718        85  DOPC      C315           -1.8633466956       25.0943253602        0.2127189700  MEMB      85              0.0000000000
     11719        85  DOPC      H15X           -2.1573627386       24.0305958492        0.0813933657  MEMB      85              0.0000000000
     11720        85  DOPC      H15Y           -2.5758294766       25.7185821922       -0.3688853366  MEMB      85              0.0000000000
     11721        85  DOPC      C316           -1.9954065898       25.5383871618        1.6741624260  MEMB      85              0.0000000000
     11722        85  DOPC      H16X           -1.2903368967       24.9574286721        2.3060183340  MEMB      85              0.0000000000
     11723        85  DOPC      H16Y           -1.7415686914       26.6129526883        1.8176121895  MEMB      85              0.0000000000
     11724        85  DOPC      C317           -3.4474336664       25.3314271893        2.1266541277  MEMB      85              0.0000000000
     11725        85  DOPC      H17X           -3.4817895044       25.2558244631        3.2330404237  MEMB      85              0.0000000000
     11726        85  DOPC      H17Y           -4.0501697374       26.2115868408        1.7998499423  MEMB      85              0.0000000000
     11727        85  DOPC      C318           -4.0830044174       24.0647699196        1.5703162767  MEMB      85              0.0000000000
     11728        85  DOPC      H18X           -5.1195696281       23.9221927701        1.9395529874  MEMB      85              0.0000000000
     11729        85  DOPC      H18Y           -4.1287654484       24.0924983051        0.4635365999  MEMB      85              0.0000000000
     11730        85  DOPC      H18Z           -3.4476432529       23.1977800734        1.8501849747  MEMB      85              0.0000000000
     11731        86  DOPC      N             -23.1477926608       14.7228951022      -17.9688834304  MEMB      86              0.0000000000
     11732        86  DOPC      C12           -24.2341596178       15.5868912305      -18.6180254123  MEMB      86              0.0000000000
     11733        86  DOPC      H12A          -24.2547896386       16.5575119446      -18.1251213298  MEMB      86              0.0000000000
     11734        86  DOPC      H12B          -25.2109604396       15.1446043551      -18.4930221510  MEMB      86              0.0000000000
     11735        86  DOPC      C13           -22.9956311322       13.4412502675      -18.7331376505  MEMB      86              0.0000000000
     11736        86  DOPC      H13A          -23.8744224882       12.8094020257      -18.6983688178  MEMB      86              0.0000000000
     11737        86  DOPC      H13B          -22.8146614686       13.6833353727      -19.7797737405  MEMB      86              0.0000000000
     11738        86  DOPC      H13C          -22.1507960864       12.8493585554      -18.3984525475  MEMB      86              0.0000000000
     11739        86  DOPC      C14           -23.3896644599       14.4651880260      -16.5110416341  MEMB      86              0.0000000000
     11740        86  DOPC      H14A          -22.5417348040       13.9372010118      -16.0778290661  MEMB      86              0.0000000000
     11741        86  DOPC      H14B          -23.5030835623       15.3996052835      -15.9726998777  MEMB      86              0.0000000000
     11742        86  DOPC      H14C          -24.2601027454       13.8459879970      -16.3472941531  MEMB      86              0.0000000000
     11743        86  DOPC      C15           -21.8569398912       15.4664648982      -18.0706062663  MEMB      86              0.0000000000
     11744        86  DOPC      H15A          -21.8682516263       16.3979444480      -17.5142713673  MEMB      86              0.0000000000
     11745        86  DOPC      H15B          -21.7145957350       15.7782145879      -19.1082337969  MEMB      86              0.0000000000
     11746        86  DOPC      H15C          -21.0099200687       14.8736115924      -17.7630534930  MEMB      86              0.0000000000
     11747        86  DOPC      C11           -24.0795439290       15.9371963176      -20.1266787009  MEMB      86              0.0000000000
     11748        86  DOPC      H11A          -23.9790395161       15.0079508401      -20.7278821819  MEMB      86              0.0000000000
     11749        86  DOPC      H11B          -25.0149875393       16.4354868645      -20.4844988999  MEMB      86              0.0000000000
     11750        86  DOPC      P             -22.9995995446       18.3326842618      -20.1158898950  MEMB      86              0.0000000000
     11751        86  DOPC      O13           -23.8408164144       18.9932455559      -21.1381774630  MEMB      86              0.0000000000
     11752        86  DOPC      O14           -21.6345681473       18.8572165559      -19.9144130560  MEMB      86              0.0000000000
     11753        86  DOPC      O12           -22.9375481812       16.7576070958      -20.3617437807  MEMB      86              0.0000000000
     11754        86  DOPC      O11           -23.7789638106       18.3767917189      -18.7284434023  MEMB      86              0.0000000000
     11755        86  DOPC      C1            -24.0586207166       19.6157161421      -18.0651864181  MEMB      86              0.0000000000
     11756        86  DOPC      HA            -25.1019836309       19.9347643216      -18.2813304759  MEMB      86              0.0000000000
     11757        86  DOPC      HB            -23.4005168293       20.4360472019      -18.4251131436  MEMB      86              0.0000000000
     11758        86  DOPC      C2            -23.9131630620       19.4800301155      -16.5149472174  MEMB      86              0.0000000000
     11759        86  DOPC      HS            -24.1865668416       20.4502962050      -16.0375633236  MEMB      86              0.0000000000
     11760        86  DOPC      O21           -22.5693152982       19.1364451200      -16.1351215158  MEMB      86              0.0000000000
     11761        86  DOPC      C21           -21.6218642678       20.0186597853      -16.4133939795  MEMB      86              0.0000000000
     11762        86  DOPC      O22           -21.7621704362       21.0766538222      -16.9946036817  MEMB      86              0.0000000000
     11763        86  DOPC      C22           -20.3390255488       19.5727853812      -15.7288767343  MEMB      86              0.0000000000
     11764        86  DOPC      H2R           -20.3007369417       20.0624575162      -14.7365426808  MEMB      86              0.0000000000
     11765        86  DOPC      H2S           -19.5137582743       19.9957971602      -16.3460291586  MEMB      86              0.0000000000
     11766        86  DOPC      C3            -24.9084095074       18.4097377821      -15.9457531572  MEMB      86              0.0000000000
     11767        86  DOPC      HX            -25.0328762996       17.6115384517      -16.7062962430  MEMB      86              0.0000000000
     11768        86  DOPC      HY            -25.9029248491       18.8987874836      -15.8177776315  MEMB      86              0.0000000000
     11769        86  DOPC      O31           -24.4231387033       17.8247616252      -14.7136450554  MEMB      86              0.0000000000
     11770        86  DOPC      C31           -25.3232631848       17.1610659070      -13.9990162478  MEMB      86              0.0000000000
     11771        86  DOPC      O32           -26.4896031976       16.9986051326      -14.3018909828  MEMB      86              0.0000000000
     11772        86  DOPC      C32           -24.6604375601       16.6578351359      -12.7209069950  MEMB      86              0.0000000000
     11773        86  DOPC      H2X           -23.5702012695       16.8611292450      -12.7741169335  MEMB      86              0.0000000000
     11774        86  DOPC      H2Y           -25.0650760050       17.2427683635      -11.8727560090  MEMB      86              0.0000000000
     11775        86  DOPC      C23           -20.1541016518       18.0345242936      -15.6227906721  MEMB      86              0.0000000000
     11776        86  DOPC      H3R           -19.0545512710       17.9000137980      -15.5927610149  MEMB      86              0.0000000000
     11777        86  DOPC      H3S           -20.5230586726       17.5496193498      -16.5527582743  MEMB      86              0.0000000000
     11778        86  DOPC      C24           -20.7315164446       17.3147919308      -14.3764430374  MEMB      86              0.0000000000
     11779        86  DOPC      H4R           -20.4910334189       16.2322183138      -14.4675878887  MEMB      86              0.0000000000
     11780        86  DOPC      H4S           -21.8397531899       17.4055826435      -14.3618362583  MEMB      86              0.0000000000
     11781        86  DOPC      C25           -20.1727260961       17.8227138009      -13.0353592880  MEMB      86              0.0000000000
     11782        86  DOPC      H5R           -20.5770203590       18.8401113188      -12.8659916525  MEMB      86              0.0000000000
     11783        86  DOPC      H5S           -19.0696595531       17.9206363722      -13.0988520643  MEMB      86              0.0000000000
     11784        86  DOPC      C26           -20.4996084212       16.9446136810      -11.8115909403  MEMB      86              0.0000000000
     11785        86  DOPC      H6R           -19.9902660671       15.9618009244      -11.9209156336  MEMB      86              0.0000000000
     11786        86  DOPC      H6S           -21.5946777867       16.7612346483      -11.7632920332  MEMB      86              0.0000000000
     11787        86  DOPC      C27           -20.0406344469       17.6029444147      -10.4921676671  MEMB      86              0.0000000000
     11788        86  DOPC      H7R           -20.5256569961       18.5971821961      -10.4051387814  MEMB      86              0.0000000000
     11789        86  DOPC      H7S           -18.9426601610       17.7825995323      -10.5451575756  MEMB      86              0.0000000000
     11790        86  DOPC      C28           -20.3291897987       16.8051452468       -9.2003923115  MEMB      86              0.0000000000
     11791        86  DOPC      H8R           -20.1142364350       17.4717716058       -8.3323544702  MEMB      86              0.0000000000
     11792        86  DOPC      H8S           -19.5794568622       15.9852489918       -9.1447247790  MEMB      86              0.0000000000
     11793        86  DOPC      C29           -21.7036604395       16.2032073344       -9.0413792265  MEMB      86              0.0000000000
     11794        86  DOPC      H9R           -21.6936591796       15.1275415939       -8.8097265913  MEMB      86              0.0000000000
     11795        86  DOPC      C210          -22.9041680507       16.8005836074       -9.1447670299  MEMB      86              0.0000000000
     11796        86  DOPC      H10R          -23.7903020762       16.1981921495       -8.9032008490  MEMB      86              0.0000000000
     11797        86  DOPC      C211          -23.2180846895       18.2441490841       -9.4464151229  MEMB      86              0.0000000000
     11798        86  DOPC      H11R          -24.2728336629       18.3233668717       -9.7871370491  MEMB      86              0.0000000000
     11799        86  DOPC      H11S          -22.5936411670       18.6340411990      -10.2775493484  MEMB      86              0.0000000000
     11800        86  DOPC      C212          -23.0252939333       19.1287738938       -8.2033294295  MEMB      86              0.0000000000
     11801        86  DOPC      H12R          -23.1972733304       20.1965902407       -8.4622342777  MEMB      86              0.0000000000
     11802        86  DOPC      H12S          -21.9665056338       19.0455430682       -7.8666405480  MEMB      86              0.0000000000
     11803        86  DOPC      C213          -23.9491854510       18.7411875518       -7.0406705057  MEMB      86              0.0000000000
     11804        86  DOPC      H13R          -23.9474556944       17.6372907509       -6.9044260201  MEMB      86              0.0000000000
     11805        86  DOPC      H13S          -24.9980849192       19.0367666396       -7.2647323433  MEMB      86              0.0000000000
     11806        86  DOPC      C214          -23.4906202255       19.3619517964       -5.7206289202  MEMB      86              0.0000000000
     11807        86  DOPC      H14R          -23.7965761348       20.4325793695       -5.7126051310  MEMB      86              0.0000000000
     11808        86  DOPC      H14S          -22.3812569723       19.3195540339       -5.6419540570  MEMB      86              0.0000000000
     11809        86  DOPC      C215          -24.0850584881       18.6345920216       -4.5137888794  MEMB      86              0.0000000000
     11810        86  DOPC      H15R          -23.6509544417       17.6197779442       -4.3921311594  MEMB      86              0.0000000000
     11811        86  DOPC      H15S          -25.1760386223       18.4991442783       -4.7106988590  MEMB      86              0.0000000000
     11812        86  DOPC      C216          -23.9437018522       19.4503630903       -3.2282475508  MEMB      86              0.0000000000
     11813        86  DOPC      H16R          -24.7913380349       19.1574337326       -2.5681183309  MEMB      86              0.0000000000
     11814        86  DOPC      H16S          -24.0449021216       20.5286607492       -3.4825813461  MEMB      86              0.0000000000
     11815        86  DOPC      C217          -22.6645114129       19.2500910607       -2.4205425392  MEMB      86              0.0000000000
     11816        86  DOPC      H17R          -21.7746269906       19.5341156125       -3.0225878799  MEMB      86              0.0000000000
     11817        86  DOPC      H17S          -22.5953437751       18.1692754028       -2.2018290252  MEMB      86              0.0000000000
     11818        86  DOPC      C218          -22.6776215710       20.0261777401       -1.0978582952  MEMB      86              0.0000000000
     11819        86  DOPC      H18R          -22.7835725189       21.1161135914       -1.2859416952  MEMB      86              0.0000000000
     11820        86  DOPC      H18S          -21.7400237804       19.8541337790       -0.5266186787  MEMB      86              0.0000000000
     11821        86  DOPC      H18T          -23.5354376534       19.6994791754       -0.4692627573  MEMB      86              0.0000000000
     11822        86  DOPC      C33           -24.8684946861       15.1382110416      -12.5065317072  MEMB      86              0.0000000000
     11823        86  DOPC      H3X           -24.2708971842       14.8365439220      -11.6156329789  MEMB      86              0.0000000000
     11824        86  DOPC      H3Y           -24.4478207653       14.5816867159      -13.3727525316  MEMB      86              0.0000000000
     11825        86  DOPC      C34           -26.3284718971       14.6972215147      -12.2810203525  MEMB      86              0.0000000000
     11826        86  DOPC      H4X           -26.3460327529       13.6028183901      -12.0781899776  MEMB      86              0.0000000000
     11827        86  DOPC      H4Y           -26.9178819712       14.8559755730      -13.2123179162  MEMB      86              0.0000000000
     11828        86  DOPC      C35           -27.0534176335       15.4146723263      -11.1279521650  MEMB      86              0.0000000000
     11829        86  DOPC      H5X           -28.1238359706       15.1065129204      -11.1413491278  MEMB      86              0.0000000000
     11830        86  DOPC      H5Y           -27.0297270825       16.5118461631      -11.2942029020  MEMB      86              0.0000000000
     11831        86  DOPC      C36           -26.4666042242       15.0723099446       -9.7536248019  MEMB      86              0.0000000000
     11832        86  DOPC      H6X           -26.6214662182       13.9858146528       -9.5749224311  MEMB      86              0.0000000000
     11833        86  DOPC      H6Y           -25.3742991090       15.2578939838       -9.7764850127  MEMB      86              0.0000000000
     11834        86  DOPC      C37           -27.0807589222       15.8745872911       -8.5958815936  MEMB      86              0.0000000000
     11835        86  DOPC      H7X           -26.9394049701       16.9608414486       -8.8002378370  MEMB      86              0.0000000000
     11836        86  DOPC      H7Y           -28.1753438961       15.6810681533       -8.5537973447  MEMB      86              0.0000000000
     11837        86  DOPC      C38           -26.4572255817       15.5548990704       -7.2209797059  MEMB      86              0.0000000000
     11838        86  DOPC      H8X           -26.7735939676       16.3428934535       -6.5012740110  MEMB      86              0.0000000000
     11839        86  DOPC      H8Y           -25.3516881924       15.6411082536       -7.3067576121  MEMB      86              0.0000000000
     11840        86  DOPC      C39           -26.8285538898       14.1735705849       -6.7354619888  MEMB      86              0.0000000000
     11841        86  DOPC      H9X           -26.4078233902       13.3548044266       -7.3396552823  MEMB      86              0.0000000000
     11842        86  DOPC      C310          -27.6363027795       13.8562096841       -5.7041958022  MEMB      86              0.0000000000
     11843        86  DOPC      H10X          -27.8192142968       12.7907100019       -5.4938823508  MEMB      86              0.0000000000
     11844        86  DOPC      C311          -28.3689425155       14.8029904253       -4.7841686237  MEMB      86              0.0000000000
     11845        86  DOPC      H11X          -29.4468116005       14.5242310369       -4.7858461188  MEMB      86              0.0000000000
     11846        86  DOPC      H11Y          -28.3240104029       15.8565867848       -5.1370933144  MEMB      86              0.0000000000
     11847        86  DOPC      C312          -27.9100541518       14.7651838869       -3.3110289389  MEMB      86              0.0000000000
     11848        86  DOPC      H12X          -28.0330056025       13.7379040176       -2.9036134016  MEMB      86              0.0000000000
     11849        86  DOPC      H12Y          -28.5874083918       15.4308143508       -2.7292406861  MEMB      86              0.0000000000
     11850        86  DOPC      C313          -26.4720625765       15.2490113238       -3.0691227122  MEMB      86              0.0000000000
     11851        86  DOPC      H13X          -25.7559016220       14.4942537091       -3.4619279953  MEMB      86              0.0000000000
     11852        86  DOPC      H13Y          -26.3032561398       16.1917150281       -3.6378324540  MEMB      86              0.0000000000
     11853        86  DOPC      C314          -26.1775311873       15.5238024524       -1.5832789985  MEMB      86              0.0000000000
     11854        86  DOPC      H14X          -25.1371508396       15.9069153111       -1.4894439593  MEMB      86              0.0000000000
     11855        86  DOPC      H14Y          -26.8547348515       16.3365965334       -1.2333690509  MEMB      86              0.0000000000
     11856        86  DOPC      C315          -26.3580355020       14.3101943191       -0.6529920420  MEMB      86              0.0000000000
     11857        86  DOPC      H15X          -27.4307578576       14.0161494412       -0.6263249358  MEMB      86              0.0000000000
     11858        86  DOPC      H15Y          -26.0696688235       14.6184791702        0.3754124570  MEMB      86              0.0000000000
     11859        86  DOPC      C316          -25.4977977796       13.0844330315       -0.9866570576  MEMB      86              0.0000000000
     11860        86  DOPC      H16X          -25.6712864073       12.3146452429       -0.1992566120  MEMB      86              0.0000000000
     11861        86  DOPC      H16Y          -25.8091814956       12.6478096673       -1.9603280876  MEMB      86              0.0000000000
     11862        86  DOPC      C317          -24.0019109349       13.4062695566       -1.0333151926  MEMB      86              0.0000000000
     11863        86  DOPC      H17X          -23.8069846951       14.0429164544       -1.9269973772  MEMB      86              0.0000000000
     11864        86  DOPC      H17Y          -23.7287996824       13.9991444185       -0.1289779783  MEMB      86              0.0000000000
     11865        86  DOPC      C318          -23.1235052408       12.1597606451       -1.1035474454  MEMB      86              0.0000000000
     11866        86  DOPC      H18X          -23.3469153363       11.5813194313       -2.0257403765  MEMB      86              0.0000000000
     11867        86  DOPC      H18Y          -22.0478727569       12.4396811207       -1.1170450686  MEMB      86              0.0000000000
     11868        86  DOPC      H18Z          -23.3104171867       11.5052510491       -0.2244595374  MEMB      86              0.0000000000
     11869        87  DOPC      N               9.2576940577       29.2396530458      -19.4557389820  MEMB      87              0.0000000000
     11870        87  DOPC      C12             8.5795815724       27.9602387674      -19.9307633930  MEMB      87              0.0000000000
     11871        87  DOPC      H12A            8.3990236408       27.3080799744      -19.0715841634  MEMB      87              0.0000000000
     11872        87  DOPC      H12B            9.2242207019       27.4476730761      -20.6276984080  MEMB      87              0.0000000000
     11873        87  DOPC      C13            10.6619148978       28.9940697494      -19.0371623804  MEMB      87              0.0000000000
     11874        87  DOPC      H13A           11.1322920717       29.9516497708      -18.8417760881  MEMB      87              0.0000000000
     11875        87  DOPC      H13B           10.7146931669       28.3864413677      -18.1441427086  MEMB      87              0.0000000000
     11876        87  DOPC      H13C           11.2109380049       28.5346725793      -19.8463489635  MEMB      87              0.0000000000
     11877        87  DOPC      C14             8.4825905103       29.7550950507      -18.2810682181  MEMB      87              0.0000000000
     11878        87  DOPC      H14A            8.7228989176       30.7757031080      -18.0382772422  MEMB      87              0.0000000000
     11879        87  DOPC      H14B            7.4235778643       29.6355821200      -18.4992281841  MEMB      87              0.0000000000
     11880        87  DOPC      H14C            8.6365282690       29.1300714419      -17.4026172375  MEMB      87              0.0000000000
     11881        87  DOPC      C15             9.3024596042       30.2258589734      -20.5927999140  MEMB      87              0.0000000000
     11882        87  DOPC      H15A           10.0917549880       29.9960686445      -21.3053349863  MEMB      87              0.0000000000
     11883        87  DOPC      H15B            9.4265973122       31.2543904640      -20.2795833337  MEMB      87              0.0000000000
     11884        87  DOPC      H15C            8.3780730398       30.1859332196      -21.1800606092  MEMB      87              0.0000000000
     11885        87  DOPC      C11             7.1902640414       28.1209963899      -20.6002731118  MEMB      87              0.0000000000
     11886        87  DOPC      H11A            7.2061131749       28.8788121798      -21.4043067598  MEMB      87              0.0000000000
     11887        87  DOPC      H11B            6.9276396251       27.1652945419      -21.1225614430  MEMB      87              0.0000000000
     11888        87  DOPC      P               5.5467046396       27.3289392637      -18.8037614519  MEMB      87              0.0000000000
     11889        87  DOPC      O13             5.0673866103       26.2436799636      -19.6843470501  MEMB      87              0.0000000000
     11890        87  DOPC      O14             4.5395401893       28.0191370874      -17.9777681405  MEMB      87              0.0000000000
     11891        87  DOPC      O12             6.2059066546       28.5099633156      -19.6435516361  MEMB      87              0.0000000000
     11892        87  DOPC      O11             6.8098001063       26.8239427223      -17.9764404188  MEMB      87              0.0000000000
     11893        87  DOPC      C1              6.5413783892       26.0436447783      -16.8041677277  MEMB      87              0.0000000000
     11894        87  DOPC      HA              7.3389942004       25.2833243812      -16.6659416867  MEMB      87              0.0000000000
     11895        87  DOPC      HB              5.5786478776       25.4719060755      -16.8647235757  MEMB      87              0.0000000000
     11896        87  DOPC      C2              6.5049902724       26.9812160150      -15.5773419816  MEMB      87              0.0000000000
     11897        87  DOPC      HS              5.8951659474       27.8643931795      -15.8918669105  MEMB      87              0.0000000000
     11898        87  DOPC      O21             7.8727366971       27.3306949539      -15.2303631887  MEMB      87              0.0000000000
     11899        87  DOPC      C21             7.9668525956       28.5405152493      -14.7001850257  MEMB      87              0.0000000000
     11900        87  DOPC      O22             7.0241025769       29.2960185260      -14.5172659380  MEMB      87              0.0000000000
     11901        87  DOPC      C22             9.4615363287       28.9368866117      -14.6667786016  MEMB      87              0.0000000000
     11902        87  DOPC      H2R             9.5702742494       29.7415845109      -15.4241476670  MEMB      87              0.0000000000
     11903        87  DOPC      H2S            10.0830196648       28.0738372041      -14.9785260212  MEMB      87              0.0000000000
     11904        87  DOPC      C3              5.7759576329       26.3330909151      -14.3768835569  MEMB      87              0.0000000000
     11905        87  DOPC      HX              4.7971295606       25.9380350722      -14.7353447474  MEMB      87              0.0000000000
     11906        87  DOPC      HY              5.5619994805       27.1256151374      -13.6200659839  MEMB      87              0.0000000000
     11907        87  DOPC      O31             6.5836431307       25.2517513305      -13.8878246726  MEMB      87              0.0000000000
     11908        87  DOPC      C31             6.9028661432       25.2756262292      -12.6054414053  MEMB      87              0.0000000000
     11909        87  DOPC      O32             6.4146847723       25.9850104071      -11.7490789030  MEMB      87              0.0000000000
     11910        87  DOPC      C32             8.0251964348       24.2640614939      -12.4090612629  MEMB      87              0.0000000000
     11911        87  DOPC      H2X             7.6566875308       23.2761037181      -12.7594657721  MEMB      87              0.0000000000
     11912        87  DOPC      H2Y             8.8359602323       24.5916072363      -13.0863518151  MEMB      87              0.0000000000
     11913        87  DOPC      C23             9.9923614164       29.4951461589      -13.3213545820  MEMB      87              0.0000000000
     11914        87  DOPC      H3R            11.0100704685       29.9188255252      -13.4883723627  MEMB      87              0.0000000000
     11915        87  DOPC      H3S            10.1059365942       28.6942625221      -12.5626993344  MEMB      87              0.0000000000
     11916        87  DOPC      C24             9.0831422450       30.5861070471      -12.7577767054  MEMB      87              0.0000000000
     11917        87  DOPC      H4R             8.1594013453       30.0997667183      -12.3685121838  MEMB      87              0.0000000000
     11918        87  DOPC      H4S             8.7653498821       31.2703966586      -13.5755004592  MEMB      87              0.0000000000
     11919        87  DOPC      C25             9.7003879686       31.4348835600      -11.6421850214  MEMB      87              0.0000000000
     11920        87  DOPC      H5R             9.8756646697       32.4443341070      -12.0757364361  MEMB      87              0.0000000000
     11921        87  DOPC      H5S            10.6957213927       31.0587218205      -11.3283792524  MEMB      87              0.0000000000
     11922        87  DOPC      C26             8.7535016025       31.5732644206      -10.4399659468  MEMB      87              0.0000000000
     11923        87  DOPC      H6R             7.7080789762       31.3720872505      -10.7496207914  MEMB      87              0.0000000000
     11924        87  DOPC      H6S             8.7743781708       32.6372097899      -10.1200336278  MEMB      87              0.0000000000
     11925        87  DOPC      C27             9.1286098169       30.7280028191       -9.2072060450  MEMB      87              0.0000000000
     11926        87  DOPC      H7R             9.1527158736       31.4195352629       -8.3374282877  MEMB      87              0.0000000000
     11927        87  DOPC      H7S            10.1488839866       30.3539487445       -9.3496880704  MEMB      87              0.0000000000
     11928        87  DOPC      C28             8.2135678587       29.5165983437       -8.9025730698  MEMB      87              0.0000000000
     11929        87  DOPC      H8R             8.7310496445       28.5887626518       -9.2286949866  MEMB      87              0.0000000000
     11930        87  DOPC      H8S             7.3060637762       29.6008134660       -9.5401673119  MEMB      87              0.0000000000
     11931        87  DOPC      C29             7.8136195424       29.4190479741       -7.4431725781  MEMB      87              0.0000000000
     11932        87  DOPC      H9R             8.3006454229       30.1376446316       -6.7645581758  MEMB      87              0.0000000000
     11933        87  DOPC      C210            6.9048378709       28.5605768830       -6.9419816183  MEMB      87              0.0000000000
     11934        87  DOPC      H10R            6.6679131648       28.5930802885       -5.8672367208  MEMB      87              0.0000000000
     11935        87  DOPC      C211            6.1369720584       27.5472153379       -7.7593165563  MEMB      87              0.0000000000
     11936        87  DOPC      H11R            5.9134267794       27.9580483814       -8.7730249829  MEMB      87              0.0000000000
     11937        87  DOPC      H11S            5.1558861705       27.3082396295       -7.2934782909  MEMB      87              0.0000000000
     11938        87  DOPC      C212            6.9428514161       26.2479083903       -7.9706100330  MEMB      87              0.0000000000
     11939        87  DOPC      H12R            8.0149556001       26.5111799893       -8.1235402519  MEMB      87              0.0000000000
     11940        87  DOPC      H12S            6.5870052549       25.7499561299       -8.9014292857  MEMB      87              0.0000000000
     11941        87  DOPC      C213            6.8637513591       25.2291433971       -6.8228974225  MEMB      87              0.0000000000
     11942        87  DOPC      H13R            5.8636380967       24.7435063163       -6.8310173861  MEMB      87              0.0000000000
     11943        87  DOPC      H13S            6.9618603708       25.7809588735       -5.8645117476  MEMB      87              0.0000000000
     11944        87  DOPC      C214            7.9778838165       24.1660903479       -6.9426155079  MEMB      87              0.0000000000
     11945        87  DOPC      H14R            8.9599510207       24.6907796397       -6.9343483567  MEMB      87              0.0000000000
     11946        87  DOPC      H14S            7.8695777783       23.6655491693       -7.9289238232  MEMB      87              0.0000000000
     11947        87  DOPC      C215            7.9846512129       23.0860428479       -5.8424276760  MEMB      87              0.0000000000
     11948        87  DOPC      H15R            8.7097080622       22.2834189919       -6.1013477324  MEMB      87              0.0000000000
     11949        87  DOPC      H15S            6.9715626755       22.6358345854       -5.8085948012  MEMB      87              0.0000000000
     11950        87  DOPC      C216            8.3404678241       23.6624061734       -4.4684876995  MEMB      87              0.0000000000
     11951        87  DOPC      H16R            7.6933686796       24.5496019023       -4.3405569843  MEMB      87              0.0000000000
     11952        87  DOPC      H16S            9.3962542910       24.0093184533       -4.4547226605  MEMB      87              0.0000000000
     11953        87  DOPC      C217            8.0597019149       22.7856592780       -3.2442976859  MEMB      87              0.0000000000
     11954        87  DOPC      H17R            8.8149670671       21.9727903138       -3.1591740412  MEMB      87              0.0000000000
     11955        87  DOPC      H17S            7.0632634972       22.3106802354       -3.3634265573  MEMB      87              0.0000000000
     11956        87  DOPC      C218            8.0238972779       23.6305398075       -1.9662499564  MEMB      87              0.0000000000
     11957        87  DOPC      H18R            7.7606779647       23.0105152049       -1.0870791679  MEMB      87              0.0000000000
     11958        87  DOPC      H18S            7.2655353991       24.4347186901       -2.0480778011  MEMB      87              0.0000000000
     11959        87  DOPC      H18T            9.0106193790       24.1123548101       -1.7906356197  MEMB      87              0.0000000000
     11960        87  DOPC      C33             8.5407867003       24.1172352504      -10.9562471374  MEMB      87              0.0000000000
     11961        87  DOPC      H3X             9.2624816085       23.2661498168      -10.9514642492  MEMB      87              0.0000000000
     11962        87  DOPC      H3Y             7.7097288344       23.8383798067      -10.2704656286  MEMB      87              0.0000000000
     11963        87  DOPC      C34             9.2803476010       25.3447493432      -10.3968062253  MEMB      87              0.0000000000
     11964        87  DOPC      H4X             9.7661973148       25.0511845640       -9.4383535415  MEMB      87              0.0000000000
     11965        87  DOPC      H4Y             8.5431395027       26.1452874899      -10.1676721082  MEMB      87              0.0000000000
     11966        87  DOPC      C35            10.3361866627       25.9385929098      -11.3365415047  MEMB      87              0.0000000000
     11967        87  DOPC      H5X             9.8996267702       26.8001821269      -11.8795532760  MEMB      87              0.0000000000
     11968        87  DOPC      H5Y            10.6223781873       25.2057674955      -12.0979741446  MEMB      87              0.0000000000
     11969        87  DOPC      C36            11.6484489773       26.3254564478      -10.6576645190  MEMB      87              0.0000000000
     11970        87  DOPC      H6X            12.0613441509       25.5061421141      -10.0336392301  MEMB      87              0.0000000000
     11971        87  DOPC      H6Y            12.3971055931       26.5509983187      -11.4538149334  MEMB      87              0.0000000000
     11972        87  DOPC      C37            11.4799468371       27.5110972868       -9.7354658216  MEMB      87              0.0000000000
     11973        87  DOPC      H7X            10.7166274741       28.1771577725      -10.2058232692  MEMB      87              0.0000000000
     11974        87  DOPC      H7Y            11.0782860180       27.1745177690       -8.7500331286  MEMB      87              0.0000000000
     11975        87  DOPC      C38            12.8085618627       28.2329553516       -9.5508183290  MEMB      87              0.0000000000
     11976        87  DOPC      H8X            13.2807281786       28.3861382624      -10.5492607763  MEMB      87              0.0000000000
     11977        87  DOPC      H8Y            13.5140395633       27.6323883837       -8.9339475386  MEMB      87              0.0000000000
     11978        87  DOPC      C39            12.4319666708       29.5472130177       -8.9475507068  MEMB      87              0.0000000000
     11979        87  DOPC      H9X            12.2532542346       30.3341866918       -9.6979096032  MEMB      87              0.0000000000
     11980        87  DOPC      C310           12.2280047390       29.8357589564       -7.6547229671  MEMB      87              0.0000000000
     11981        87  DOPC      H10X           11.8615674116       30.8446370793       -7.4323211576  MEMB      87              0.0000000000
     11982        87  DOPC      C311           12.3293907453       28.9229860165       -6.4572627849  MEMB      87              0.0000000000
     11983        87  DOPC      H11X           13.0123966681       29.4059487427       -5.7228794878  MEMB      87              0.0000000000
     11984        87  DOPC      H11Y           12.7791164021       27.9379636214       -6.7121309772  MEMB      87              0.0000000000
     11985        87  DOPC      C312           10.9812038903       28.6805124846       -5.7452563304  MEMB      87              0.0000000000
     11986        87  DOPC      H12X           10.3801056577       27.9464225140       -6.3260675145  MEMB      87              0.0000000000
     11987        87  DOPC      H12Y           10.3930288519       29.6246039392       -5.7067750184  MEMB      87              0.0000000000
     11988        87  DOPC      C313           11.1561143582       28.1946811874       -4.2950901015  MEMB      87              0.0000000000
     11989        87  DOPC      H13X           11.6457407844       27.1970871393       -4.2825102734  MEMB      87              0.0000000000
     11990        87  DOPC      H13Y           11.8288583720       28.9107038294       -3.7677756092  MEMB      87              0.0000000000
     11991        87  DOPC      C314            9.8418653667       28.1379344996       -3.5009450270  MEMB      87              0.0000000000
     11992        87  DOPC      H14X           10.0910897042       28.0854216123       -2.4156436820  MEMB      87              0.0000000000
     11993        87  DOPC      H14Y            9.2641286833       29.0745911935       -3.6697728716  MEMB      87              0.0000000000
     11994        87  DOPC      C315            8.9520490422       26.9342696652       -3.8409847481  MEMB      87              0.0000000000
     11995        87  DOPC      H15X            9.4428330836       26.0097733431       -3.4637566769  MEMB      87              0.0000000000
     11996        87  DOPC      H15Y            8.8622402349       26.8339495770       -4.9471618562  MEMB      87              0.0000000000
     11997        87  DOPC      C316            7.5396702296       27.0651769723       -3.2436140616  MEMB      87              0.0000000000
     11998        87  DOPC      H16X            7.0197737807       27.9025074692       -3.7539306913  MEMB      87              0.0000000000
     11999        87  DOPC      H16Y            6.9345167284       26.1565211087       -3.4488670998  MEMB      87              0.0000000000
     12000        87  DOPC      C317            7.5141625385       27.2979215652       -1.7282153910  MEMB      87              0.0000000000
     12001        87  DOPC      H17X            8.0039814405       26.4316231217       -1.2282018322  MEMB      87              0.0000000000
     12002        87  DOPC      H17Y            8.0980844185       28.2062923953       -1.4649788169  MEMB      87              0.0000000000
     12003        87  DOPC      C318            6.0909442928       27.4617949705       -1.1967428742  MEMB      87              0.0000000000
     12004        87  DOPC      H18X            5.4232438273       26.7083883484       -1.6660544009  MEMB      87              0.0000000000
     12005        87  DOPC      H18Y            6.0547224104       27.3369910331       -0.0933392107  MEMB      87              0.0000000000
     12006        87  DOPC      H18Z            5.6909274880       28.4666974131       -1.4448578345  MEMB      87              0.0000000000
     12007        88  DOPC      N              22.9802417686      -14.9148903244      -19.0096959762  MEMB      88              0.0000000000
     12008        88  DOPC      C12            24.1312336184      -14.7849896434      -18.0323103401  MEMB      88              0.0000000000
     12009        88  DOPC      H12A           23.8666415152      -15.1743858302      -17.0612218350  MEMB      88              0.0000000000
     12010        88  DOPC      H12B           24.2763964496      -13.7143461536      -17.8928443396  MEMB      88              0.0000000000
     12011        88  DOPC      C13            22.8180771474      -16.2915123167      -19.5938867081  MEMB      88              0.0000000000
     12012        88  DOPC      H13A           22.3591552014      -17.0111510285      -18.9147231567  MEMB      88              0.0000000000
     12013        88  DOPC      H13B           22.2157455191      -16.3085511570      -20.4908820444  MEMB      88              0.0000000000
     12014        88  DOPC      H13C           23.7906556581      -16.7257227678      -19.8167230394  MEMB      88              0.0000000000
     12015        88  DOPC      C14            23.3613533414      -13.9958225816      -20.1049585806  MEMB      88              0.0000000000
     12016        88  DOPC      H14A           23.3677963650      -12.9644015535      -19.7635710211  MEMB      88              0.0000000000
     12017        88  DOPC      H14B           24.3722278628      -14.2055287381      -20.4518869731  MEMB      88              0.0000000000
     12018        88  DOPC      H14C           22.6683819729      -14.0801972780      -20.9311905798  MEMB      88              0.0000000000
     12019        88  DOPC      C15            21.6942259173      -14.4306344816      -18.4265209638  MEMB      88              0.0000000000
     12020        88  DOPC      H15A           21.0325061442      -14.1480899519      -19.2378177677  MEMB      88              0.0000000000
     12021        88  DOPC      H15B           21.8331796750      -13.5324049447      -17.8286911038  MEMB      88              0.0000000000
     12022        88  DOPC      H15C           21.2054394663      -15.1881623162      -17.8197250383  MEMB      88              0.0000000000
     12023        88  DOPC      C11            25.5349735894      -15.3361737154      -18.4226746010  MEMB      88              0.0000000000
     12024        88  DOPC      H11A           26.2302287799      -14.6355951057      -17.9190811369  MEMB      88              0.0000000000
     12025        88  DOPC      H11B           25.6968279945      -16.3332120006      -17.9712009279  MEMB      88              0.0000000000
     12026        88  DOPC      P              26.8685428500      -14.5209914518      -20.5239100390  MEMB      88              0.0000000000
     12027        88  DOPC      O13            26.3016287446      -13.1676154330      -20.5807254084  MEMB      88              0.0000000000
     12028        88  DOPC      O14            27.2008119300      -15.1564600341      -21.8179732583  MEMB      88              0.0000000000
     12029        88  DOPC      O12            25.7978620810      -15.4329079834      -19.8219618264  MEMB      88              0.0000000000
     12030        88  DOPC      O11            28.0864095033      -14.6334951675      -19.4556099233  MEMB      88              0.0000000000
     12031        88  DOPC      C1             28.8430667178      -15.8755520170      -19.4638269854  MEMB      88              0.0000000000
     12032        88  DOPC      HA             29.7798540042      -15.6616260080      -20.0269287902  MEMB      88              0.0000000000
     12033        88  DOPC      HB             28.3020334174      -16.6728647043      -20.0258353436  MEMB      88              0.0000000000
     12034        88  DOPC      C2             29.3358333675      -16.6591213650      -18.1357032313  MEMB      88              0.0000000000
     12035        88  DOPC      HS             29.8870406796      -17.5245416991      -18.5309476109  MEMB      88              0.0000000000
     12036        88  DOPC      O21            28.2702628328      -17.1247329357      -17.2380979647  MEMB      88              0.0000000000
     12037        88  DOPC      C21            28.6962340103      -18.0845343973      -16.3425832242  MEMB      88              0.0000000000
     12038        88  DOPC      O22            29.7509595863      -18.6762189544      -16.4885205318  MEMB      88              0.0000000000
     12039        88  DOPC      C22            27.5727604157      -18.4002052147      -15.2725047746  MEMB      88              0.0000000000
     12040        88  DOPC      H2R            27.6695920317      -19.4682964437      -14.9957474348  MEMB      88              0.0000000000
     12041        88  DOPC      H2S            26.6345965063      -18.3108720657      -15.8491275702  MEMB      88              0.0000000000
     12042        88  DOPC      C3             30.3690873706      -15.8232625994      -17.2858721574  MEMB      88              0.0000000000
     12043        88  DOPC      HX             30.8086520182      -15.0182424310      -17.9181389660  MEMB      88              0.0000000000
     12044        88  DOPC      HY             31.2113222585      -16.5179558296      -17.0468446641  MEMB      88              0.0000000000
     12045        88  DOPC      O31            29.8318380031      -15.3456434808      -16.0353217224  MEMB      88              0.0000000000
     12046        88  DOPC      C31            29.4852155445      -14.0585124703      -16.0699230949  MEMB      88              0.0000000000
     12047        88  DOPC      O32            30.2441738524      -13.1375071632      -16.3095719056  MEMB      88              0.0000000000
     12048        88  DOPC      C32            27.9674024473      -14.0317451835      -16.2311590307  MEMB      88              0.0000000000
     12049        88  DOPC      H2X            27.7602313519      -13.2599439317      -16.9996604474  MEMB      88              0.0000000000
     12050        88  DOPC      H2Y            27.6676295343      -15.0119428960      -16.6449735505  MEMB      88              0.0000000000
     12051        88  DOPC      C23            27.4039653400      -17.4946448516      -13.9712972810  MEMB      88              0.0000000000
     12052        88  DOPC      H3R            26.9374942791      -16.5509248473      -14.3197610474  MEMB      88              0.0000000000
     12053        88  DOPC      H3S            28.4076368680      -17.2483656194      -13.5874946797  MEMB      88              0.0000000000
     12054        88  DOPC      C24            26.5933917554      -18.0223010141      -12.7152458575  MEMB      88              0.0000000000
     12055        88  DOPC      H4R            26.7337510013      -19.1289822923      -12.7292540149  MEMB      88              0.0000000000
     12056        88  DOPC      H4S            25.5116080442      -17.8313112790      -12.8360607320  MEMB      88              0.0000000000
     12057        88  DOPC      C25            27.0680569924      -17.5669976018      -11.2736545216  MEMB      88              0.0000000000
     12058        88  DOPC      H5R            27.9638508238      -16.9198340743      -11.3926810677  MEMB      88              0.0000000000
     12059        88  DOPC      H5S            27.4175459958      -18.5146216912      -10.8054190691  MEMB      88              0.0000000000
     12060        88  DOPC      C26            26.1520948531      -16.9401653456      -10.1407025815  MEMB      88              0.0000000000
     12061        88  DOPC      H6R            25.4511499343      -17.6993141844       -9.7478433368  MEMB      88              0.0000000000
     12062        88  DOPC      H6S            25.5417642693      -16.1002667788      -10.5304768496  MEMB      88              0.0000000000
     12063        88  DOPC      C27            27.0625799633      -16.4384971210       -8.9642381665  MEMB      88              0.0000000000
     12064        88  DOPC      H7R            27.5670148626      -15.5503649778       -9.3953134876  MEMB      88              0.0000000000
     12065        88  DOPC      H7S            27.8740614956      -17.1671005192       -8.8168216032  MEMB      88              0.0000000000
     12066        88  DOPC      C28            26.6241896002      -16.0016704698       -7.5020651052  MEMB      88              0.0000000000
     12067        88  DOPC      H8R            26.4125578682      -14.9131764825       -7.6203456715  MEMB      88              0.0000000000
     12068        88  DOPC      H8S            27.5805384607      -16.0280888007       -6.9250236344  MEMB      88              0.0000000000
     12069        88  DOPC      C29            25.5308861634      -16.5314142121       -6.5771117148  MEMB      88              0.0000000000
     12070        88  DOPC      H9R            24.5513370556      -16.1198458562       -6.8604566493  MEMB      88              0.0000000000
     12071        88  DOPC      C210           25.5396709998      -17.3115582353       -5.4488160682  MEMB      88              0.0000000000
     12072        88  DOPC      H10R           24.5723093925      -17.4283874729       -4.9373706359  MEMB      88              0.0000000000
     12073        88  DOPC      C211           26.6504806289      -17.9897790637       -4.6499599938  MEMB      88              0.0000000000
     12074        88  DOPC      H11R           27.5180384176      -18.0921595458       -5.3449017393  MEMB      88              0.0000000000
     12075        88  DOPC      H11S           26.3679204474      -19.0361536463       -4.4082513664  MEMB      88              0.0000000000
     12076        88  DOPC      C212           27.1752331101      -17.2476877302       -3.3576054455  MEMB      88              0.0000000000
     12077        88  DOPC      H12R           26.8560503526      -16.2185193608       -3.5454779365  MEMB      88              0.0000000000
     12078        88  DOPC      H12S           28.2859493748      -17.3013961183       -3.4100757700  MEMB      88              0.0000000000
     12079        88  DOPC      C213           26.8161967138      -17.5596030365       -1.8443901082  MEMB      88              0.0000000000
     12080        88  DOPC      H13R           27.3695681146      -18.5011886955       -1.6222663453  MEMB      88              0.0000000000
     12081        88  DOPC      H13S           25.7425638414      -17.8081677198       -1.7360498962  MEMB      88              0.0000000000
     12082        88  DOPC      C214           27.3430296769      -16.4076844768       -0.7781939247  MEMB      88              0.0000000000
     12083        88  DOPC      H14R           26.8745860111      -17.1812400583       -0.0905471693  MEMB      88              0.0000000000
     12084        88  DOPC      H14S           26.7002729141      -15.7071570809       -1.3570161337  MEMB      88              0.0000000000
     12085        88  DOPC      C215           27.0291339646      -15.4527369174        0.5476103408  MEMB      88              0.0000000000
     12086        88  DOPC      H15R           27.9496598551      -15.5529728188        1.2003961565  MEMB      88              0.0000000000
     12087        88  DOPC      H15S           26.2019287749      -15.6860726995        1.2030707870  MEMB      88              0.0000000000
     12088        88  DOPC      C216           26.8348413373      -13.8806070138        0.4077787726  MEMB      88              0.0000000000
     12089        88  DOPC      H16R           26.8201678817      -13.9104415560       -0.6963406703  MEMB      88              0.0000000000
     12090        88  DOPC      H16S           27.7452656159      -13.4002309757        0.7729232189  MEMB      88              0.0000000000
     12091        88  DOPC      C217           25.6432879057      -12.8070843624        0.5777391465  MEMB      88              0.0000000000
     12092        88  DOPC      H17R           25.2312531993      -12.6565770570       -0.4387966905  MEMB      88              0.0000000000
     12093        88  DOPC      H17S           26.1554772583      -11.8612075864        0.8361516792  MEMB      88              0.0000000000
     12094        88  DOPC      C218           24.3776006959      -12.7115799523        1.4584551771  MEMB      88              0.0000000000
     12095        88  DOPC      H18R           23.8957407929      -13.6806918137        1.6467948675  MEMB      88              0.0000000000
     12096        88  DOPC      H18S           23.6163744316      -12.1117216508        0.9003392559  MEMB      88              0.0000000000
     12097        88  DOPC      H18T           24.5756327104      -12.1832413481        2.4160935996  MEMB      88              0.0000000000
     12098        88  DOPC      C33            27.0767729138      -13.8045245827      -15.0034870184  MEMB      88              0.0000000000
     12099        88  DOPC      H3X            26.1726886533      -14.4560820178      -15.0579635839  MEMB      88              0.0000000000
     12100        88  DOPC      H3Y            26.6876335061      -12.7613373284      -15.0627916881  MEMB      88              0.0000000000
     12101        88  DOPC      C34            27.7394950870      -13.9993543336      -13.6393877221  MEMB      88              0.0000000000
     12102        88  DOPC      H4X            28.6079474992      -13.3152756560      -13.5476049331  MEMB      88              0.0000000000
     12103        88  DOPC      H4Y            28.1435192915      -15.0243672031      -13.5073233280  MEMB      88              0.0000000000
     12104        88  DOPC      C35            26.6588747894      -13.7038546230      -12.5922165881  MEMB      88              0.0000000000
     12105        88  DOPC      H5X            26.1154494821      -14.6476629599      -12.3718949437  MEMB      88              0.0000000000
     12106        88  DOPC      H5Y            25.9386930905      -13.0276128990      -13.0931520545  MEMB      88              0.0000000000
     12107        88  DOPC      C36            27.0869308419      -13.0177480316      -11.2897449216  MEMB      88              0.0000000000
     12108        88  DOPC      H6X            26.9605741493      -11.9155014198      -11.3670439729  MEMB      88              0.0000000000
     12109        88  DOPC      H6Y            26.3879388759      -13.3696583622      -10.4960163686  MEMB      88              0.0000000000
     12110        88  DOPC      C37            28.5254042357      -13.3504570082      -10.9085338417  MEMB      88              0.0000000000
     12111        88  DOPC      H7X            28.6537631600      -14.4251488202      -11.1793425545  MEMB      88              0.0000000000
     12112        88  DOPC      H7Y            29.2396050584      -12.7770350604      -11.5381355776  MEMB      88              0.0000000000
     12113        88  DOPC      C38            28.8357906116      -13.0975563922       -9.4290110464  MEMB      88              0.0000000000
     12114        88  DOPC      H8X            27.8909889992      -13.1335347502       -8.8418871806  MEMB      88              0.0000000000
     12115        88  DOPC      H8Y            29.2600189275      -12.0731720097       -9.3042415500  MEMB      88              0.0000000000
     12116        88  DOPC      C39            29.7630666711      -14.1899533624       -8.9672549142  MEMB      88              0.0000000000
     12117        88  DOPC      H9X            29.7507557773      -15.1114365611       -9.5712248744  MEMB      88              0.0000000000
     12118        88  DOPC      C310           30.6560097317      -14.0928173811       -7.9894011971  MEMB      88              0.0000000000
     12119        88  DOPC      H10X           31.3319053682      -14.9408951118       -7.7955779894  MEMB      88              0.0000000000
     12120        88  DOPC      C311           30.8847441829      -12.8516247948       -7.1825915071  MEMB      88              0.0000000000
     12121        88  DOPC      H11X           30.0757499798      -12.6877319209       -6.4398091625  MEMB      88              0.0000000000
     12122        88  DOPC      H11Y           30.9157199577      -11.9472872338       -7.8298507884  MEMB      88              0.0000000000
     12123        88  DOPC      C312           32.2423892462      -13.0021578725       -6.5055086502  MEMB      88              0.0000000000
     12124        88  DOPC      H12X           32.5943346973      -12.0052060389       -6.1649232467  MEMB      88              0.0000000000
     12125        88  DOPC      H12Y           33.0090323676      -13.3336663313       -7.2237268222  MEMB      88              0.0000000000
     12126        88  DOPC      C313           32.2526794489      -14.0118580065       -5.3552908735  MEMB      88              0.0000000000
     12127        88  DOPC      H13X           32.2580276024      -15.0567290304       -5.7305474909  MEMB      88              0.0000000000
     12128        88  DOPC      H13Y           33.1886335410      -13.8142671518       -4.8098610869  MEMB      88              0.0000000000
     12129        88  DOPC      C314           31.1550966160      -13.8199212345       -4.3303360930  MEMB      88              0.0000000000
     12130        88  DOPC      H14X           30.1560361526      -14.0192564668       -4.7751408450  MEMB      88              0.0000000000
     12131        88  DOPC      H14Y           31.2867485738      -14.5519335779       -3.5034479799  MEMB      88              0.0000000000
     12132        88  DOPC      C315           31.2178369007      -12.4007702585       -3.7809267118  MEMB      88              0.0000000000
     12133        88  DOPC      H15X           30.2101142256      -11.9566054214       -3.7285344493  MEMB      88              0.0000000000
     12134        88  DOPC      H15Y           31.7300513693      -11.6932295650       -4.4602497027  MEMB      88              0.0000000000
     12135        88  DOPC      C316           32.0034529182      -12.2743340633       -2.4791554296  MEMB      88              0.0000000000
     12136        88  DOPC      H16X           33.0873846558      -12.3221145694       -2.7300564317  MEMB      88              0.0000000000
     12137        88  DOPC      H16Y           31.7893595956      -11.2416018369       -2.2249183733  MEMB      88              0.0000000000
     12138        88  DOPC      C317           31.7330647204      -13.1117816293       -1.2167792735  MEMB      88              0.0000000000
     12139        88  DOPC      H17X           30.7951533433      -12.8385627618       -0.6871574545  MEMB      88              0.0000000000
     12140        88  DOPC      H17Y           31.6985592293      -14.1980759563       -1.4549578151  MEMB      88              0.0000000000
     12141        88  DOPC      C318           32.9131396165      -12.8714854976       -0.2980857113  MEMB      88              0.0000000000
     12142        88  DOPC      H18X           33.7675527602      -13.0568360556       -0.9524289105  MEMB      88              0.0000000000
     12143        88  DOPC      H18Y           32.9814312467      -11.8449500148        0.1105218913  MEMB      88              0.0000000000
     12144        88  DOPC      H18Z           33.0329513195      -13.5790577490        0.5163026927  MEMB      88              0.0000000000
     12145        89  DOPC      N             -20.9359901053       23.3788234100      -19.9517049083  MEMB      89              0.0000000000
     12146        89  DOPC      C12           -19.7578854952       22.6724864516      -20.6199035705  MEMB      89              0.0000000000
     12147        89  DOPC      H12A          -19.9145880532       22.6269082154      -21.6859283600  MEMB      89              0.0000000000
     12148        89  DOPC      H12B          -19.7392179203       21.6443634931      -20.2465751122  MEMB      89              0.0000000000
     12149        89  DOPC      C13           -20.7923700695       23.2339254822      -18.4772872107  MEMB      89              0.0000000000
     12150        89  DOPC      H13A          -20.9175671766       22.1896586568      -18.1890590920  MEMB      89              0.0000000000
     12151        89  DOPC      H13B          -19.7744692486       23.4655676049      -18.1734196554  MEMB      89              0.0000000000
     12152        89  DOPC      H13C          -21.5169759608       23.7809369532      -17.8972646064  MEMB      89              0.0000000000
     12153        89  DOPC      C14           -22.1796925487       22.6740476308      -20.3612396939  MEMB      89              0.0000000000
     12154        89  DOPC      H14A          -22.1799162058       21.6348543930      -20.0218528382  MEMB      89              0.0000000000
     12155        89  DOPC      H14B          -23.0407042303       23.1528291177      -19.9163000223  MEMB      89              0.0000000000
     12156        89  DOPC      H14C          -22.2696341682       22.6513587978      -21.4387456864  MEMB      89              0.0000000000
     12157        89  DOPC      C15           -20.9994680427       24.8309909969      -20.3196801092  MEMB      89              0.0000000000
     12158        89  DOPC      H15A          -21.8230945470       25.3434991978      -19.8207215165  MEMB      89              0.0000000000
     12159        89  DOPC      H15B          -21.1017156682       24.9678076407      -21.3906220015  MEMB      89              0.0000000000
     12160        89  DOPC      H15C          -20.0848383115       25.3120095367      -19.9804259140  MEMB      89              0.0000000000
     12161        89  DOPC      C11           -18.3405771654       23.2246804833      -20.3549911111  MEMB      89              0.0000000000
     12162        89  DOPC      H11A          -17.6355612685       22.7225204713      -21.0589363176  MEMB      89              0.0000000000
     12163        89  DOPC      H11B          -18.2943858658       24.3183542818      -20.5522320258  MEMB      89              0.0000000000
     12164        89  DOPC      P             -16.6995571252       23.3059348976      -18.2503097436  MEMB      89              0.0000000000
     12165        89  DOPC      O13           -15.5438867642       22.6435179354      -18.9114537358  MEMB      89              0.0000000000
     12166        89  DOPC      O14           -16.9133067488       23.0652185615      -16.8173617139  MEMB      89              0.0000000000
     12167        89  DOPC      O12           -18.0207953944       22.9119951134      -19.0126363680  MEMB      89              0.0000000000
     12168        89  DOPC      O11           -16.5513280570       24.8614402465      -18.5408876321  MEMB      89              0.0000000000
     12169        89  DOPC      C1            -17.5782104235       25.7883878672      -18.1987759596  MEMB      89              0.0000000000
     12170        89  DOPC      HA            -18.3490325824       25.3305932656      -17.5344378153  MEMB      89              0.0000000000
     12171        89  DOPC      HB            -18.0813241494       26.1523976749      -19.1188080687  MEMB      89              0.0000000000
     12172        89  DOPC      C2            -16.9936214211       27.0004300643      -17.4360720850  MEMB      89              0.0000000000
     12173        89  DOPC      HS            -16.3898201273       27.6030096342      -18.1569702478  MEMB      89              0.0000000000
     12174        89  DOPC      O21           -16.2092581866       26.4880043599      -16.3543435115  MEMB      89              0.0000000000
     12175        89  DOPC      C21           -14.9339033717       26.3691666099      -16.6074761687  MEMB      89              0.0000000000
     12176        89  DOPC      O22           -14.2674624219       27.1228733792      -17.3055057767  MEMB      89              0.0000000000
     12177        89  DOPC      C22           -14.3733026728       25.1402821652      -15.9007881873  MEMB      89              0.0000000000
     12178        89  DOPC      H2R           -13.2875895099       25.2000716614      -15.9904492236  MEMB      89              0.0000000000
     12179        89  DOPC      H2S           -14.6467104273       24.2420549645      -16.4910529192  MEMB      89              0.0000000000
     12180        89  DOPC      C3            -18.1031360148       27.9145116694      -16.8727691919  MEMB      89              0.0000000000
     12181        89  DOPC      HX            -18.7429513103       28.2717106854      -17.7128664700  MEMB      89              0.0000000000
     12182        89  DOPC      HY            -17.6336969143       28.8108532780      -16.4375589442  MEMB      89              0.0000000000
     12183        89  DOPC      O31           -18.8271253241       27.2694587034      -15.8127618984  MEMB      89              0.0000000000
     12184        89  DOPC      C31           -20.0548174322       26.8992083462      -16.0806296893  MEMB      89              0.0000000000
     12185        89  DOPC      O32           -20.5765939242       26.9133385978      -17.1851713733  MEMB      89              0.0000000000
     12186        89  DOPC      C32           -20.6929139541       26.4321035148      -14.7789275113  MEMB      89              0.0000000000
     12187        89  DOPC      H2X           -20.1473038722       26.9003433586      -13.9271823078  MEMB      89              0.0000000000
     12188        89  DOPC      H2Y           -21.7460886242       26.7652126508      -14.7356878899  MEMB      89              0.0000000000
     12189        89  DOPC      C23           -14.8566712627       24.9421224490      -14.4427896112  MEMB      89              0.0000000000
     12190        89  DOPC      H3R           -14.1837450163       24.2227471541      -13.9166363327  MEMB      89              0.0000000000
     12191        89  DOPC      H3S           -15.8607530649       24.4514366134      -14.5062201334  MEMB      89              0.0000000000
     12192        89  DOPC      C24           -15.0171356222       26.2034624281      -13.5760565594  MEMB      89              0.0000000000
     12193        89  DOPC      H4R           -15.5899464969       27.0016415767      -14.0971294273  MEMB      89              0.0000000000
     12194        89  DOPC      H4S           -14.0399545617       26.6480351608      -13.3072906474  MEMB      89              0.0000000000
     12195        89  DOPC      C25           -15.7972939667       25.8491689657      -12.3058507402  MEMB      89              0.0000000000
     12196        89  DOPC      H5R           -15.3936944461       26.4018812455      -11.4303335000  MEMB      89              0.0000000000
     12197        89  DOPC      H5S           -15.6604340659       24.7607289682      -12.1129406591  MEMB      89              0.0000000000
     12198        89  DOPC      C26           -17.2952546427       26.1489227329      -12.4756160073  MEMB      89              0.0000000000
     12199        89  DOPC      H6R           -17.5878405433       25.9505912710      -13.5327638078  MEMB      89              0.0000000000
     12200        89  DOPC      H6S           -17.4843198510       27.2298857201      -12.2937094004  MEMB      89              0.0000000000
     12201        89  DOPC      C27           -18.2127508967       25.2982132191      -11.5832804113  MEMB      89              0.0000000000
     12202        89  DOPC      H7R           -18.1818359097       24.2539437066      -11.9574247649  MEMB      89              0.0000000000
     12203        89  DOPC      H7S           -19.2549120278       25.6608362622      -11.7075635065  MEMB      89              0.0000000000
     12204        89  DOPC      C28           -17.8617266028       25.3150511549      -10.0938293712  MEMB      89              0.0000000000
     12205        89  DOPC      H8R           -16.8699826107       24.8346738525       -9.9402234451  MEMB      89              0.0000000000
     12206        89  DOPC      H8S           -18.6003612281       24.7177108551       -9.5164630078  MEMB      89              0.0000000000
     12207        89  DOPC      C29           -17.8042665024       26.7431982166       -9.6488326302  MEMB      89              0.0000000000
     12208        89  DOPC      H9R           -16.7778516310       27.1274040369       -9.6357340768  MEMB      89              0.0000000000
     12209        89  DOPC      C210          -18.8001489530       27.5884583746       -9.3257473549  MEMB      89              0.0000000000
     12210        89  DOPC      H10R          -18.5311170691       28.6051138089       -8.9985919706  MEMB      89              0.0000000000
     12211        89  DOPC      C211          -20.2769002131       27.3113287777       -9.3239192469  MEMB      89              0.0000000000
     12212        89  DOPC      H11R          -20.5195056577       26.3632268930       -9.8530733679  MEMB      89              0.0000000000
     12213        89  DOPC      H11S          -20.8163049248       28.1298484442       -9.8521640891  MEMB      89              0.0000000000
     12214        89  DOPC      C212          -20.7866773507       27.2157478727       -7.8771337515  MEMB      89              0.0000000000
     12215        89  DOPC      H12R          -21.8620970435       26.9304189025       -7.9150477404  MEMB      89              0.0000000000
     12216        89  DOPC      H12S          -20.7378852609       28.2144202251       -7.3983970147  MEMB      89              0.0000000000
     12217        89  DOPC      C213          -19.9879153905       26.2022918205       -7.0378635906  MEMB      89              0.0000000000
     12218        89  DOPC      H13R          -19.0470709975       26.6658889609       -6.6654158986  MEMB      89              0.0000000000
     12219        89  DOPC      H13S          -19.6938458047       25.3602613285       -7.7056658003  MEMB      89              0.0000000000
     12220        89  DOPC      C214          -20.7738997421       25.5986992472       -5.8742620740  MEMB      89              0.0000000000
     12221        89  DOPC      H14R          -20.6664546349       24.4979696522       -5.9193482573  MEMB      89              0.0000000000
     12222        89  DOPC      H14S          -21.8574573300       25.7897393103       -6.0243119903  MEMB      89              0.0000000000
     12223        89  DOPC      C215          -20.3236111575       26.0904582379       -4.4878340731  MEMB      89              0.0000000000
     12224        89  DOPC      H15R          -20.3032234993       27.2002357005       -4.4780829844  MEMB      89              0.0000000000
     12225        89  DOPC      H15S          -19.2826251066       25.7631656890       -4.2774469177  MEMB      89              0.0000000000
     12226        89  DOPC      C216          -21.2736024233       25.5725058528       -3.3970271919  MEMB      89              0.0000000000
     12227        89  DOPC      H16R          -20.8977508390       24.5968108342       -3.0218721678  MEMB      89              0.0000000000
     12228        89  DOPC      H16S          -22.2822285142       25.3970645042       -3.8326384208  MEMB      89              0.0000000000
     12229        89  DOPC      C217          -21.4464455318       26.4860176006       -2.1875725240  MEMB      89              0.0000000000
     12230        89  DOPC      H17R          -22.0136597026       27.4045860568       -2.4323088481  MEMB      89              0.0000000000
     12231        89  DOPC      H17S          -20.4432229828       26.8244791201       -1.8572050216  MEMB      89              0.0000000000
     12232        89  DOPC      C218          -22.1867334231       25.7523235567       -1.0712561501  MEMB      89              0.0000000000
     12233        89  DOPC      H18R          -23.2582529197       25.6149650516       -1.3293833273  MEMB      89              0.0000000000
     12234        89  DOPC      H18S          -22.1209521578       26.3251638173       -0.1266768821  MEMB      89              0.0000000000
     12235        89  DOPC      H18T          -21.7316485279       24.7562048410       -0.8894997808  MEMB      89              0.0000000000
     12236        89  DOPC      C33           -20.5446738446       24.9021072373      -14.7095298417  MEMB      89              0.0000000000
     12237        89  DOPC      H3X           -19.4487015795       24.6779839127      -14.7020220531  MEMB      89              0.0000000000
     12238        89  DOPC      H3Y           -20.9732419247       24.4160004299      -15.6121193452  MEMB      89              0.0000000000
     12239        89  DOPC      C34           -21.1619350241       24.2786462810      -13.4608047160  MEMB      89              0.0000000000
     12240        89  DOPC      H4X           -22.2684545775       24.2225710483      -13.5478458081  MEMB      89              0.0000000000
     12241        89  DOPC      H4Y           -20.9457444436       24.9395152620      -12.5942465692  MEMB      89              0.0000000000
     12242        89  DOPC      C35           -20.5585118093       22.8979331003      -13.1687458248  MEMB      89              0.0000000000
     12243        89  DOPC      H5X           -19.4848830514       22.9124041502      -13.4687349915  MEMB      89              0.0000000000
     12244        89  DOPC      H5Y           -21.0688857639       22.1292871458      -13.7893219942  MEMB      89              0.0000000000
     12245        89  DOPC      C36           -20.6417019938       22.5656521535      -11.6735937728  MEMB      89              0.0000000000
     12246        89  DOPC      H6X           -20.1838358559       23.3937277676      -11.0891301295  MEMB      89              0.0000000000
     12247        89  DOPC      H6Y           -21.7217007111       22.5289509758      -11.4048200201  MEMB      89              0.0000000000
     12248        89  DOPC      C37           -19.9837400772       21.2430576801      -11.2469544973  MEMB      89              0.0000000000
     12249        89  DOPC      H7X           -20.0049859196       21.1787056400      -10.1378861772  MEMB      89              0.0000000000
     12250        89  DOPC      H7Y           -20.6464963272       20.4334359552      -11.6176078921  MEMB      89              0.0000000000
     12251        89  DOPC      C38           -18.5504436935       20.9582135640      -11.7658589107  MEMB      89              0.0000000000
     12252        89  DOPC      H8X           -18.5656805135       20.9972538117      -12.8783092404  MEMB      89              0.0000000000
     12253        89  DOPC      H8Y           -18.3217033457       19.8999234927      -11.5080974899  MEMB      89              0.0000000000
     12254        89  DOPC      C39           -17.4221179966       21.8253181777      -11.2583124356  MEMB      89              0.0000000000
     12255        89  DOPC      H9X           -16.9272016340       22.4314697542      -12.0377787926  MEMB      89              0.0000000000
     12256        89  DOPC      C310          -16.9658272966       21.9121513967       -9.9951755884  MEMB      89              0.0000000000
     12257        89  DOPC      H10X          -16.1154817793       22.5769406606       -9.7786773332  MEMB      89              0.0000000000
     12258        89  DOPC      C311          -17.4820667488       21.1582120722       -8.8028007155  MEMB      89              0.0000000000
     12259        89  DOPC      H11X          -16.6166429859       20.7921534333       -8.2125818641  MEMB      89              0.0000000000
     12260        89  DOPC      H11Y          -18.0591746642       20.2558029206       -9.1098216333  MEMB      89              0.0000000000
     12261        89  DOPC      C312          -18.3614935870       22.0038767904       -7.8616373387  MEMB      89              0.0000000000
     12262        89  DOPC      H12X          -19.2332386331       22.4141218098       -8.4175656227  MEMB      89              0.0000000000
     12263        89  DOPC      H12Y          -17.7763771693       22.8611809502       -7.4613273171  MEMB      89              0.0000000000
     12264        89  DOPC      C313          -18.8539736464       21.1251918149       -6.7064918257  MEMB      89              0.0000000000
     12265        89  DOPC      H13X          -19.3898949132       20.2522398718       -7.1464467887  MEMB      89              0.0000000000
     12266        89  DOPC      H13Y          -17.9657229612       20.7466043910       -6.1635724289  MEMB      89              0.0000000000
     12267        89  DOPC      C314          -19.7749839745       21.7786298873       -5.6757277158  MEMB      89              0.0000000000
     12268        89  DOPC      H14X          -20.6388009878       22.2359813306       -6.2062873884  MEMB      89              0.0000000000
     12269        89  DOPC      H14Y          -20.1797091362       20.9893772349       -5.0003169979  MEMB      89              0.0000000000
     12270        89  DOPC      C315          -19.0956074562       22.8415465758       -4.8051097421  MEMB      89              0.0000000000
     12271        89  DOPC      H15X          -19.9174354337       23.3608655820       -4.2714324530  MEMB      89              0.0000000000
     12272        89  DOPC      H15Y          -18.5597277268       23.5860468449       -5.4315346334  MEMB      89              0.0000000000
     12273        89  DOPC      C316          -18.1736872922       22.3247652042       -3.7049532139  MEMB      89              0.0000000000
     12274        89  DOPC      H16X          -18.7166710439       21.5741858236       -3.0970262133  MEMB      89              0.0000000000
     12275        89  DOPC      H16Y          -17.2704235743       21.8455161071       -4.1437492840  MEMB      89              0.0000000000
     12276        89  DOPC      C317          -17.7758307467       23.4469484081       -2.7450964040  MEMB      89              0.0000000000
     12277        89  DOPC      H17X          -17.2097970339       24.2188251110       -3.3147353061  MEMB      89              0.0000000000
     12278        89  DOPC      H17Y          -18.6894467584       23.9343361157       -2.3332984721  MEMB      89              0.0000000000
     12279        89  DOPC      C318          -16.9277997489       22.9255531856       -1.5946992520  MEMB      89              0.0000000000
     12280        89  DOPC      H18X          -17.5471110331       22.3889451669       -0.8448788126  MEMB      89              0.0000000000
     12281        89  DOPC      H18Y          -16.1854773926       22.2053192868       -2.0026268805  MEMB      89              0.0000000000
     12282        89  DOPC      H18Z          -16.3969822463       23.7629353404       -1.0909721649  MEMB      89              0.0000000000
     12283        90  DOPC      N              32.3936911067        9.0124906719      -18.2992756876  MEMB      90              0.0000000000
     12284        90  DOPC      C12            31.1783108824        9.7713909842      -18.8272113946  MEMB      90              0.0000000000
     12285        90  DOPC      H12A           31.4220902426       10.1813004959      -19.8046258422  MEMB      90              0.0000000000
     12286        90  DOPC      H12B           30.9774127710       10.6226869877      -18.1937388906  MEMB      90              0.0000000000
     12287        90  DOPC      C13            32.0453179426        8.2114615713      -17.0819698576  MEMB      90              0.0000000000
     12288        90  DOPC      H13A           31.5572188540        8.8270399375      -16.3398924902  MEMB      90              0.0000000000
     12289        90  DOPC      H13B           31.3531632029        7.4168149493      -17.3639713945  MEMB      90              0.0000000000
     12290        90  DOPC      H13C           32.9289133584        7.7680720587      -16.6387852090  MEMB      90              0.0000000000
     12291        90  DOPC      C14            33.5240865738        9.9394325778      -17.9525153942  MEMB      90              0.0000000000
     12292        90  DOPC      H14A           33.2787865545       10.5446108469      -17.0911690306  MEMB      90              0.0000000000
     12293        90  DOPC      H14B           34.4453072118        9.3990083221      -17.7397755735  MEMB      90              0.0000000000
     12294        90  DOPC      H14C           33.7177648850       10.6112104947      -18.7863469955  MEMB      90              0.0000000000
     12295        90  DOPC      C15            32.8220146640        8.0653737356      -19.3799661316  MEMB      90              0.0000000000
     12296        90  DOPC      H15A           33.5973039615        7.3840982006      -19.0631247255  MEMB      90              0.0000000000
     12297        90  DOPC      H15B           33.1449174082        8.6035807337      -20.2676439208  MEMB      90              0.0000000000
     12298        90  DOPC      H15C           31.9480248180        7.4854186100      -19.6914865500  MEMB      90              0.0000000000
     12299        90  DOPC      C11            29.8382402783        8.9904467011      -18.9842238443  MEMB      90              0.0000000000
     12300        90  DOPC      H11A           29.5895268414        8.5213956839      -18.0052533345  MEMB      90              0.0000000000
     12301        90  DOPC      H11B           29.0426793394        9.7423781343      -19.2129178982  MEMB      90              0.0000000000
     12302        90  DOPC      P              28.5139762753        7.1616730192      -20.2193316216  MEMB      90              0.0000000000
     12303        90  DOPC      O13            28.7023069956        6.1512745220      -21.2893018802  MEMB      90              0.0000000000
     12304        90  DOPC      O14            27.3841082395        8.1028370346      -20.4465282545  MEMB      90              0.0000000000
     12305        90  DOPC      O12            29.8696999749        7.9956858062      -20.0166598211  MEMB      90              0.0000000000
     12306        90  DOPC      O11            28.3861707209        6.3952089896      -18.8474127448  MEMB      90              0.0000000000
     12307        90  DOPC      C1             27.1172679275        6.1460781142      -18.2617870576  MEMB      90              0.0000000000
     12308        90  DOPC      HA             27.2992254117        5.4636413934      -17.4068973140  MEMB      90              0.0000000000
     12309        90  DOPC      HB             26.4253950775        5.6373953297      -18.9720395767  MEMB      90              0.0000000000
     12310        90  DOPC      C2             26.4548349642        7.4278956690      -17.6862691132  MEMB      90              0.0000000000
     12311        90  DOPC      HS             26.0565659001        8.0087139281      -18.5516691570  MEMB      90              0.0000000000
     12312        90  DOPC      O21            27.4423970203        8.1766035204      -16.9537342701  MEMB      90              0.0000000000
     12313        90  DOPC      C21            27.1707550693        9.4467841352      -16.8139680130  MEMB      90              0.0000000000
     12314        90  DOPC      O22            26.3336729954       10.0814973849      -17.4271893880  MEMB      90              0.0000000000
     12315        90  DOPC      C22            28.0141824259       10.0088283106      -15.6403124108  MEMB      90              0.0000000000
     12316        90  DOPC      H2R            29.0772808902        9.9812785017      -15.9468271170  MEMB      90              0.0000000000
     12317        90  DOPC      H2S            27.8663287533        9.3204898772      -14.7827964161  MEMB      90              0.0000000000
     12318        90  DOPC      C3             25.2605264250        7.0981492811      -16.7619815663  MEMB      90              0.0000000000
     12319        90  DOPC      HX             24.7157000225        6.2309258698      -17.1997593327  MEMB      90              0.0000000000
     12320        90  DOPC      HY             24.5737926018        7.9702283140      -16.7396669227  MEMB      90              0.0000000000
     12321        90  DOPC      O31            25.7570891899        6.7770242997      -15.4501937646  MEMB      90              0.0000000000
     12322        90  DOPC      C31            24.8660741773        6.2345552784      -14.6374572642  MEMB      90              0.0000000000
     12323        90  DOPC      O32            23.6539518838        6.2760328234      -14.7885048281  MEMB      90              0.0000000000
     12324        90  DOPC      C32            25.6116786421        5.3199237183      -13.6479596952  MEMB      90              0.0000000000
     12325        90  DOPC      H2X            24.8900271385        4.5212340800      -13.3761278158  MEMB      90              0.0000000000
     12326        90  DOPC      H2Y            26.4290419266        4.8350604527      -14.2108957234  MEMB      90              0.0000000000
     12327        90  DOPC      C23            27.6218840001       11.4509898129      -15.2109425447  MEMB      90              0.0000000000
     12328        90  DOPC      H3R            26.5796359687       11.4717047463      -14.8286677352  MEMB      90              0.0000000000
     12329        90  DOPC      H3S            27.6410339933       12.1009368310      -16.1164414649  MEMB      90              0.0000000000
     12330        90  DOPC      C24            28.5354820317       12.1181463828      -14.1551011060  MEMB      90              0.0000000000
     12331        90  DOPC      H4R            28.2034449417       13.1801302430      -14.0527095818  MEMB      90              0.0000000000
     12332        90  DOPC      H4S            29.5808377966       12.1425315009      -14.5309517419  MEMB      90              0.0000000000
     12333        90  DOPC      C25            28.5348514977       11.4994940936      -12.7383728935  MEMB      90              0.0000000000
     12334        90  DOPC      H5R            29.0470539489       10.5131193934      -12.7783695419  MEMB      90              0.0000000000
     12335        90  DOPC      H5S            27.4958990684       11.3237381250      -12.3864541273  MEMB      90              0.0000000000
     12336        90  DOPC      C26            29.2627197675       12.4111264261      -11.7260539087  MEMB      90              0.0000000000
     12337        90  DOPC      H6R            28.5979441887       13.2338666729      -11.3845552752  MEMB      90              0.0000000000
     12338        90  DOPC      H6S            30.1008606743       12.8933566549      -12.2858402552  MEMB      90              0.0000000000
     12339        90  DOPC      C27            29.9114061943       11.6995279623      -10.5201738871  MEMB      90              0.0000000000
     12340        90  DOPC      H7R            30.8022699340       12.3211974366      -10.2523775302  MEMB      90              0.0000000000
     12341        90  DOPC      H7S            30.3036144165       10.7005995708      -10.8049108129  MEMB      90              0.0000000000
     12342        90  DOPC      C28            29.0701842876       11.6297496354       -9.2221774105  MEMB      90              0.0000000000
     12343        90  DOPC      H8R            28.5386031862       12.5980107419       -9.0923956933  MEMB      90              0.0000000000
     12344        90  DOPC      H8S            29.8255636486       11.5944251803       -8.4046024930  MEMB      90              0.0000000000
     12345        90  DOPC      C29            28.0951647044       10.4792485608       -9.0950454537  MEMB      90              0.0000000000
     12346        90  DOPC      H9R            27.3713078353       10.3953201749       -9.9228776825  MEMB      90              0.0000000000
     12347        90  DOPC      C210           28.0548426770        9.5643668286       -8.0973417237  MEMB      90              0.0000000000
     12348        90  DOPC      H10R           27.2647926493        8.7959008306       -8.1172750228  MEMB      90              0.0000000000
     12349        90  DOPC      C211           28.9758832229        9.4970534866       -6.8951381704  MEMB      90              0.0000000000
     12350        90  DOPC      H11R           29.5428793773       10.4467545744       -6.7794477742  MEMB      90              0.0000000000
     12351        90  DOPC      H11S           29.7350476734        8.6950982329       -7.0327182716  MEMB      90              0.0000000000
     12352        90  DOPC      C212           28.2874847129        9.2799554494       -5.5290734840  MEMB      90              0.0000000000
     12353        90  DOPC      H12R           27.3229865345        9.8309129825       -5.5106864335  MEMB      90              0.0000000000
     12354        90  DOPC      H12S           28.9377948724        9.7426137778       -4.7504616505  MEMB      90              0.0000000000
     12355        90  DOPC      C213           28.1158847038        7.8013178713       -5.1232624255  MEMB      90              0.0000000000
     12356        90  DOPC      H13R           29.0931782791        7.2898360333       -5.2567987346  MEMB      90              0.0000000000
     12357        90  DOPC      H13S           27.3770966541        7.3098914810       -5.7925791507  MEMB      90              0.0000000000
     12358        90  DOPC      C214           27.6656708235        7.6218319977       -3.6579819957  MEMB      90              0.0000000000
     12359        90  DOPC      H14R           28.3179700992        8.2503237118       -3.0129969642  MEMB      90              0.0000000000
     12360        90  DOPC      H14S           27.7845494800        6.5636919104       -3.3375638806  MEMB      90              0.0000000000
     12361        90  DOPC      C215           26.1985336671        8.0401102175       -3.5219138564  MEMB      90              0.0000000000
     12362        90  DOPC      H15R           25.5485207265        7.3044448015       -4.0463924181  MEMB      90              0.0000000000
     12363        90  DOPC      H15S           26.1478564706        8.9966012785       -4.0734968177  MEMB      90              0.0000000000
     12364        90  DOPC      C216           25.6403493947        8.3402357250       -2.1252240033  MEMB      90              0.0000000000
     12365        90  DOPC      H16R           25.5935797483        7.4061643548       -1.5391766860  MEMB      90              0.0000000000
     12366        90  DOPC      H16S           24.5877595522        8.6880498177       -2.2423802699  MEMB      90              0.0000000000
     12367        90  DOPC      C217           26.4174831617        9.4413834654       -1.3882733698  MEMB      90              0.0000000000
     12368        90  DOPC      H17R           26.5431318687       10.3068164894       -2.0788236946  MEMB      90              0.0000000000
     12369        90  DOPC      H17S           27.4345079769        9.0646492381       -1.1396667172  MEMB      90              0.0000000000
     12370        90  DOPC      C218           25.7338883533        9.9325338163       -0.1094716537  MEMB      90              0.0000000000
     12371        90  DOPC      H18R           25.5375997070        9.0804870810        0.5740601092  MEMB      90              0.0000000000
     12372        90  DOPC      H18S           24.7662732946       10.4248513689       -0.3525723468  MEMB      90              0.0000000000
     12373        90  DOPC      H18T           26.3783223185       10.6629509799        0.4274702366  MEMB      90              0.0000000000
     12374        90  DOPC      C33            26.1866331526        5.9008548956      -12.3262512724  MEMB      90              0.0000000000
     12375        90  DOPC      H3X            26.4929999036        5.0034190702      -11.7364284103  MEMB      90              0.0000000000
     12376        90  DOPC      H3Y            25.4021092345        6.4103360265      -11.7349538415  MEMB      90              0.0000000000
     12377        90  DOPC      C34            27.4668892114        6.7549990946      -12.4043339418  MEMB      90              0.0000000000
     12378        90  DOPC      H4X            27.9159541765        6.7572490978      -11.3834436290  MEMB      90              0.0000000000
     12379        90  DOPC      H4Y            27.2228295944        7.8097086858      -12.6323872661  MEMB      90              0.0000000000
     12380        90  DOPC      C35            28.5044358605        6.2585763287      -13.4248576117  MEMB      90              0.0000000000
     12381        90  DOPC      H5X            28.0484506836        6.3031130391      -14.4382260029  MEMB      90              0.0000000000
     12382        90  DOPC      H5Y            28.7595438243        5.2035937245      -13.2167494198  MEMB      90              0.0000000000
     12383        90  DOPC      C36            29.8140360523        7.0602171312      -13.4522796110  MEMB      90              0.0000000000
     12384        90  DOPC      H6X            30.3982568444        6.7414390941      -14.3479802381  MEMB      90              0.0000000000
     12385        90  DOPC      H6Y            29.5715729512        8.1373140286      -13.5620535167  MEMB      90              0.0000000000
     12386        90  DOPC      C37            30.6684930983        6.8378996088      -12.1982244931  MEMB      90              0.0000000000
     12387        90  DOPC      H7X            30.0069800578        6.9010369597      -11.3061641583  MEMB      90              0.0000000000
     12388        90  DOPC      H7Y            31.0979306790        5.8124206813      -12.2459180402  MEMB      90              0.0000000000
     12389        90  DOPC      C38            31.7908511461        7.8711354679      -12.0124407866  MEMB      90              0.0000000000
     12390        90  DOPC      H8X            31.3164171478        8.8778279256      -12.0792444940  MEMB      90              0.0000000000
     12391        90  DOPC      H8Y            32.4742208521        7.7871856770      -12.8870055796  MEMB      90              0.0000000000
     12392        90  DOPC      C39            32.6026438930        7.8142639135      -10.7335682169  MEMB      90              0.0000000000
     12393        90  DOPC      H9X            33.3456121148        8.6242617662      -10.6862330948  MEMB      90              0.0000000000
     12394        90  DOPC      C310           32.5673112783        6.9786091218       -9.6695082627  MEMB      90              0.0000000000
     12395        90  DOPC      H10X           33.3092517324        7.1588438005       -8.8772757828  MEMB      90              0.0000000000
     12396        90  DOPC      C311           31.7003571716        5.7800487594       -9.3598922142  MEMB      90              0.0000000000
     12397        90  DOPC      H11X           32.3492747394        4.9576783242       -8.9814954049  MEMB      90              0.0000000000
     12398        90  DOPC      H11Y           31.1989141653        5.3540696789      -10.2502575730  MEMB      90              0.0000000000
     12399        90  DOPC      C312           30.6160489726        6.0569289706       -8.2981574412  MEMB      90              0.0000000000
     12400        90  DOPC      H12X           29.8660531303        6.7762718122       -8.6934508045  MEMB      90              0.0000000000
     12401        90  DOPC      H12Y           31.0826265644        6.5029824372       -7.3910115087  MEMB      90              0.0000000000
     12402        90  DOPC      C313           29.9315269096        4.7453929961       -7.8959955538  MEMB      90              0.0000000000
     12403        90  DOPC      H13X           29.5223224622        4.2481469485       -8.8034828282  MEMB      90              0.0000000000
     12404        90  DOPC      H13Y           30.7416437604        4.1152801945       -7.4650112723  MEMB      90              0.0000000000
     12405        90  DOPC      C314           28.8403505641        4.8506444271       -6.8257175807  MEMB      90              0.0000000000
     12406        90  DOPC      H14X           29.3415016387        5.2184620949       -5.9036226694  MEMB      90              0.0000000000
     12407        90  DOPC      H14Y           28.0695650029        5.5950404927       -7.1149374166  MEMB      90              0.0000000000
     12408        90  DOPC      C315           28.1616394998        3.4984185345       -6.5244918957  MEMB      90              0.0000000000
     12409        90  DOPC      H15X           28.8999935656        2.6756008929       -6.6624999881  MEMB      90              0.0000000000
     12410        90  DOPC      H15Y           27.3402592484        3.3235777177       -7.2542650556  MEMB      90              0.0000000000
     12411        90  DOPC      C316           27.6160496961        3.4036604863       -5.0884796953  MEMB      90              0.0000000000
     12412        90  DOPC      H16X           27.0192819928        4.3132697349       -4.8676686444  MEMB      90              0.0000000000
     12413        90  DOPC      H16Y           26.9457438339        2.5172734740       -5.0080448656  MEMB      90              0.0000000000
     12414        90  DOPC      C317           28.7382564364        3.2417268370       -4.0538389045  MEMB      90              0.0000000000
     12415        90  DOPC      H17X           29.2699374490        2.2947840425       -4.2986160612  MEMB      90              0.0000000000
     12416        90  DOPC      H17Y           29.4686870617        4.0733944025       -4.1682646937  MEMB      90              0.0000000000
     12417        90  DOPC      C318           28.2980707346        3.1968209518       -2.5904106996  MEMB      90              0.0000000000
     12418        90  DOPC      H18X           29.1566562653        2.9703536562       -1.9238408323  MEMB      90              0.0000000000
     12419        90  DOPC      H18Y           27.8841511483        4.1814718105       -2.2860244641  MEMB      90              0.0000000000
     12420        90  DOPC      H18Z           27.5236108931        2.4147228055       -2.4391460088  MEMB      90              0.0000000000
     12421        91  DOPC      N              29.4419972034       -9.6405710673      -20.1035500071  MEMB      91              0.0000000000
     12422        91  DOPC      C12            29.8865273285       -9.2415887608      -18.7102100337  MEMB      91              0.0000000000
     12423        91  DOPC      H12A           30.3652730158      -10.1006613230      -18.2530466251  MEMB      91              0.0000000000
     12424        91  DOPC      H12B           28.9815015991       -9.0730472845      -18.1312137743  MEMB      91              0.0000000000
     12425        91  DOPC      C13            28.6701361091      -10.9252277450      -20.0871180657  MEMB      91              0.0000000000
     12426        91  DOPC      H13A           29.2880690467      -11.7915250697      -19.9097130517  MEMB      91              0.0000000000
     12427        91  DOPC      H13B           27.9001149421      -10.9453650559      -19.3252928486  MEMB      91              0.0000000000
     12428        91  DOPC      H13C           28.1519059760      -11.0802960361      -21.0315792877  MEMB      91              0.0000000000
     12429        91  DOPC      C14            30.6292433139       -9.7494411074      -21.0169471001  MEMB      91              0.0000000000
     12430        91  DOPC      H14A           31.0673808785       -8.7658733345      -21.1130419040  MEMB      91              0.0000000000
     12431        91  DOPC      H14B           31.3696787095      -10.4381543397      -20.6248630393  MEMB      91              0.0000000000
     12432        91  DOPC      H14C           30.3403123797      -10.1317381999      -21.9912353388  MEMB      91              0.0000000000
     12433        91  DOPC      C15            28.5322981783       -8.5736911751      -20.6202519001  MEMB      91              0.0000000000
     12434        91  DOPC      H15A           28.1954458760       -8.7866509056      -21.6282153827  MEMB      91              0.0000000000
     12435        91  DOPC      H15B           29.0626070986       -7.6183642246      -20.6245768138  MEMB      91              0.0000000000
     12436        91  DOPC      H15C           27.6529355205       -8.4721123988      -19.9902110158  MEMB      91              0.0000000000
     12437        91  DOPC      C11            30.7647621558       -7.9796457398      -18.4579009945  MEMB      91              0.0000000000
     12438        91  DOPC      H11A           30.9032608268       -7.8841670024      -17.3483089942  MEMB      91              0.0000000000
     12439        91  DOPC      H11B           31.7812729242       -8.1589601969      -18.8666857414  MEMB      91              0.0000000000
     12440        91  DOPC      P              29.4285658883       -5.7092359742      -18.1613282946  MEMB      91              0.0000000000
     12441        91  DOPC      O13            29.1018951501       -4.5601789903      -19.0416030073  MEMB      91              0.0000000000
     12442        91  DOPC      O14            30.1433103249       -5.4106022110      -16.9053523083  MEMB      91              0.0000000000
     12443        91  DOPC      O12            30.2303054436       -6.7850055891      -19.0404438884  MEMB      91              0.0000000000
     12444        91  DOPC      O11            28.0940075151       -6.5119063268      -17.9140895050  MEMB      91              0.0000000000
     12445        91  DOPC      C1             26.7896388548       -5.9452194305      -18.1248532476  MEMB      91              0.0000000000
     12446        91  DOPC      HA             26.2312620111       -6.5704722820      -18.8521905177  MEMB      91              0.0000000000
     12447        91  DOPC      HB             26.8335461550       -4.9176881849      -18.5613383535  MEMB      91              0.0000000000
     12448        91  DOPC      C2             25.9645296779       -5.8148798920      -16.8088033607  MEMB      91              0.0000000000
     12449        91  DOPC      HS             25.3280386024       -4.9041610590      -16.9104146681  MEMB      91              0.0000000000
     12450        91  DOPC      O21            26.8843964775       -5.6306360818      -15.7457854695  MEMB      91              0.0000000000
     12451        91  DOPC      C21            26.3451194846       -5.4657970712      -14.5722734231  MEMB      91              0.0000000000
     12452        91  DOPC      O22            25.2072395113       -5.0889494954      -14.3480160190  MEMB      91              0.0000000000
     12453        91  DOPC      C22            27.3720205815       -5.9322089217      -13.5708682758  MEMB      91              0.0000000000
     12454        91  DOPC      H2R            27.6745776992       -6.9667890170      -13.8319030593  MEMB      91              0.0000000000
     12455        91  DOPC      H2S            26.8831103563       -5.9580898891      -12.5848576454  MEMB      91              0.0000000000
     12456        91  DOPC      C3             25.0192678923       -7.0549552646      -16.5263506173  MEMB      91              0.0000000000
     12457        91  DOPC      HX             24.8284807366       -7.5984908568      -17.4811184193  MEMB      91              0.0000000000
     12458        91  DOPC      HY             24.0391166793       -6.6342573070      -16.2025789644  MEMB      91              0.0000000000
     12459        91  DOPC      O31            25.4237425192       -7.9302337479      -15.4540387898  MEMB      91              0.0000000000
     12460        91  DOPC      C31            25.8744574125       -9.1036276645      -15.8439932669  MEMB      91              0.0000000000
     12461        91  DOPC      O32            25.2465039339      -10.1484441511      -15.8337492710  MEMB      91              0.0000000000
     12462        91  DOPC      C32            27.2913719765       -8.9470957310      -16.3387239448  MEMB      91              0.0000000000
     12463        91  DOPC      H2X            27.2635567732       -8.5033250076      -17.3426133545  MEMB      91              0.0000000000
     12464        91  DOPC      H2Y            27.8397554168       -8.2716918416      -15.6432785994  MEMB      91              0.0000000000
     12465        91  DOPC      C23            28.5940445676       -4.9997199381      -13.6469941004  MEMB      91              0.0000000000
     12466        91  DOPC      H3R            28.2631586926       -3.9371062778      -13.6416549085  MEMB      91              0.0000000000
     12467        91  DOPC      H3S            29.1237358367       -5.1732539734      -14.6174170402  MEMB      91              0.0000000000
     12468        91  DOPC      C24            29.5931191349       -5.2139271410      -12.5118328937  MEMB      91              0.0000000000
     12469        91  DOPC      H4R            30.3828521651       -4.4369855847      -12.5869163859  MEMB      91              0.0000000000
     12470        91  DOPC      H4S            30.0916592139       -6.1897654811      -12.6944842265  MEMB      91              0.0000000000
     12471        91  DOPC      C25            28.9685122204       -5.2151290429      -11.1019995054  MEMB      91              0.0000000000
     12472        91  DOPC      H5R            29.7780943586       -5.1376496555      -10.3479382353  MEMB      91              0.0000000000
     12473        91  DOPC      H5S            28.4856633547       -6.1956467061      -10.9525104799  MEMB      91              0.0000000000
     12474        91  DOPC      C26            27.9216773575       -4.1218873907      -10.8375525845  MEMB      91              0.0000000000
     12475        91  DOPC      H6R            26.9496486293       -4.3677702822      -11.3055217673  MEMB      91              0.0000000000
     12476        91  DOPC      H6S            28.2703684166       -3.1969960596      -11.3468462507  MEMB      91              0.0000000000
     12477        91  DOPC      C27            27.7140739686       -3.7706327440       -9.3507807122  MEMB      91              0.0000000000
     12478        91  DOPC      H7R            27.3431653793       -2.7339518363       -9.3646739322  MEMB      91              0.0000000000
     12479        91  DOPC      H7S            28.6908101961       -3.7583292609       -8.8236203617  MEMB      91              0.0000000000
     12480        91  DOPC      C28            26.6841217169       -4.5687744108       -8.5147617446  MEMB      91              0.0000000000
     12481        91  DOPC      H8R            26.5419014287       -4.0180058719       -7.5558406940  MEMB      91              0.0000000000
     12482        91  DOPC      H8S            27.1534933362       -5.5353138955       -8.2327802210  MEMB      91              0.0000000000
     12483        91  DOPC      C29            25.3313014258       -4.7676879769       -9.1585189138  MEMB      91              0.0000000000
     12484        91  DOPC      H9R            24.5805451214       -3.9882984223       -8.9710240876  MEMB      91              0.0000000000
     12485        91  DOPC      C210           24.9540095877       -5.8578935957       -9.8339896590  MEMB      91              0.0000000000
     12486        91  DOPC      H10R           23.9448621459       -5.9082368337      -10.2626344409  MEMB      91              0.0000000000
     12487        91  DOPC      C211           25.8359685128       -7.0525665737      -10.0478991388  MEMB      91              0.0000000000
     12488        91  DOPC      H11R           26.9060349547       -6.7987469261       -9.9341784646  MEMB      91              0.0000000000
     12489        91  DOPC      H11S           25.7011498390       -7.4540028145      -11.0776432117  MEMB      91              0.0000000000
     12490        91  DOPC      C212           25.5462145889       -8.1442118216       -9.0156420962  MEMB      91              0.0000000000
     12491        91  DOPC      H12R           26.2552574242       -8.9864526699       -9.2043025276  MEMB      91              0.0000000000
     12492        91  DOPC      H12S           24.5011780088       -8.4733505665       -9.1867294448  MEMB      91              0.0000000000
     12493        91  DOPC      C213           25.6656204201       -7.7439375370       -7.5387575829  MEMB      91              0.0000000000
     12494        91  DOPC      H13R           25.1570665379       -6.7731441158       -7.3611337989  MEMB      91              0.0000000000
     12495        91  DOPC      H13S           26.7441875766       -7.6268081314       -7.3016658222  MEMB      91              0.0000000000
     12496        91  DOPC      C214           25.0078138706       -8.7394826282       -6.5786755109  MEMB      91              0.0000000000
     12497        91  DOPC      H14R           25.3011289000       -9.7733664814       -6.8532497412  MEMB      91              0.0000000000
     12498        91  DOPC      H14S           23.9008494189       -8.6599533762       -6.6836954407  MEMB      91              0.0000000000
     12499        91  DOPC      C215           25.4022753657       -8.4947891666       -5.1194791168  MEMB      91              0.0000000000
     12500        91  DOPC      H15R           24.7220190196       -9.0834041668       -4.4623396675  MEMB      91              0.0000000000
     12501        91  DOPC      H15S           25.2670130169       -7.4198466803       -4.8652856169  MEMB      91              0.0000000000
     12502        91  DOPC      C216           26.8480240415       -8.9267980313       -4.8340342692  MEMB      91              0.0000000000
     12503        91  DOPC      H16R           27.5511130252       -8.2776015499       -5.4018697896  MEMB      91              0.0000000000
     12504        91  DOPC      H16S           26.9922510778       -9.9729109631       -5.1859993444  MEMB      91              0.0000000000
     12505        91  DOPC      C217           27.1761483609       -8.8356344107       -3.3437866750  MEMB      91              0.0000000000
     12506        91  DOPC      H17R           26.4443410327       -9.4484539617       -2.7692256700  MEMB      91              0.0000000000
     12507        91  DOPC      H17S           27.0515336853       -7.7762252335       -3.0441523420  MEMB      91              0.0000000000
     12508        91  DOPC      C218           28.5905877680       -9.2485646311       -2.9597699098  MEMB      91              0.0000000000
     12509        91  DOPC      H18R           28.6839322758       -9.2621131685       -1.8522742831  MEMB      91              0.0000000000
     12510        91  DOPC      H18S           29.3288220009       -8.5228840703       -3.3610347512  MEMB      91              0.0000000000
     12511        91  DOPC      H18T           28.8375956399      -10.2548833614       -3.3529937605  MEMB      91              0.0000000000
     12512        91  DOPC      C33            27.9648894300      -10.3072449723      -16.3387836994  MEMB      91              0.0000000000
     12513        91  DOPC      H3X            28.9327875014      -10.2985451439      -16.8642123100  MEMB      91              0.0000000000
     12514        91  DOPC      H3Y            27.3396991374      -11.0723469520      -16.8516901203  MEMB      91              0.0000000000
     12515        91  DOPC      C34            28.3148030175      -10.5967158108      -14.8877208199  MEMB      91              0.0000000000
     12516        91  DOPC      H4X            28.2852249517      -11.6691776343      -14.6813633064  MEMB      91              0.0000000000
     12517        91  DOPC      H4Y            27.5722805883      -10.1077921629      -14.2196659928  MEMB      91              0.0000000000
     12518        91  DOPC      C35            29.7175756691      -10.0842987882      -14.5750766527  MEMB      91              0.0000000000
     12519        91  DOPC      H5X            29.9987441738       -9.3485620003      -15.3683059548  MEMB      91              0.0000000000
     12520        91  DOPC      H5Y            30.4308436672      -10.9285170573      -14.6491997466  MEMB      91              0.0000000000
     12521        91  DOPC      C36            29.8447594785       -9.3142382098      -13.2589312807  MEMB      91              0.0000000000
     12522        91  DOPC      H6X            30.9141277673       -9.0305854942      -13.1388854155  MEMB      91              0.0000000000
     12523        91  DOPC      H6Y            29.2579330477       -8.3771875407      -13.3907125530  MEMB      91              0.0000000000
     12524        91  DOPC      C37            29.3498659922       -9.9909742976      -11.9702468718  MEMB      91              0.0000000000
     12525        91  DOPC      H7X            28.3779981248      -10.4959285790      -12.1564076437  MEMB      91              0.0000000000
     12526        91  DOPC      H7Y            30.0757468618      -10.7661013079      -11.6455497588  MEMB      91              0.0000000000
     12527        91  DOPC      C38            29.1436588661       -8.9688341758      -10.8327033694  MEMB      91              0.0000000000
     12528        91  DOPC      H8X            28.7611026180       -9.4917015880       -9.9292536956  MEMB      91              0.0000000000
     12529        91  DOPC      H8Y            28.3393910361       -8.2708438342      -11.1573802558  MEMB      91              0.0000000000
     12530        91  DOPC      C39            30.4252555040       -8.2148701077      -10.5592022593  MEMB      91              0.0000000000
     12531        91  DOPC      H9X            30.7201237365       -7.5136672735      -11.3496957767  MEMB      91              0.0000000000
     12532        91  DOPC      C310           31.2132330802       -8.2563747145       -9.4786465696  MEMB      91              0.0000000000
     12533        91  DOPC      H10X           32.1057115361       -7.6097224207       -9.4666888585  MEMB      91              0.0000000000
     12534        91  DOPC      C311           31.0320719074       -9.0680231890       -8.2301127404  MEMB      91              0.0000000000
     12535        91  DOPC      H11X           31.7517284318       -9.9173805622       -8.2211311742  MEMB      91              0.0000000000
     12536        91  DOPC      H11Y           30.0046857320       -9.4791387353       -8.1137443680  MEMB      91              0.0000000000
     12537        91  DOPC      C312           31.3505986818       -8.1485909224       -7.0500184960  MEMB      91              0.0000000000
     12538        91  DOPC      H12X           30.6681367637       -7.2667631759       -7.0189745601  MEMB      91              0.0000000000
     12539        91  DOPC      H12Y           32.3993383922       -7.7864619578       -7.1621782799  MEMB      91              0.0000000000
     12540        91  DOPC      C313           31.2943494528       -8.8674552007       -5.7154826530  MEMB      91              0.0000000000
     12541        91  DOPC      H13X           30.2398476966       -9.0785470869       -5.4278327448  MEMB      91              0.0000000000
     12542        91  DOPC      H13Y           31.8120775745       -9.8470852703       -5.8314716163  MEMB      91              0.0000000000
     12543        91  DOPC      C314           32.0092650115       -8.0757866769       -4.6187215826  MEMB      91              0.0000000000
     12544        91  DOPC      H14X           32.9896133588       -7.6959055234       -4.9837571849  MEMB      91              0.0000000000
     12545        91  DOPC      H14Y           31.3921668347       -7.1996624224       -4.3150312925  MEMB      91              0.0000000000
     12546        91  DOPC      C315           32.2419902116       -9.0082861926       -3.4432519891  MEMB      91              0.0000000000
     12547        91  DOPC      H15X           32.9492812376       -9.8133564744       -3.7470450453  MEMB      91              0.0000000000
     12548        91  DOPC      H15Y           31.2646180128       -9.4898842117       -3.2315430741  MEMB      91              0.0000000000
     12549        91  DOPC      C316           32.7570956244       -8.3436281425       -2.1736746706  MEMB      91              0.0000000000
     12550        91  DOPC      H16X           33.8229820694       -8.0598542769       -2.3381325867  MEMB      91              0.0000000000
     12551        91  DOPC      H16Y           32.1973360472       -7.4085113654       -1.9797567307  MEMB      91              0.0000000000
     12552        91  DOPC      C317           32.6777122840       -9.3109387496       -0.9773345629  MEMB      91              0.0000000000
     12553        91  DOPC      H17X           33.2449807637      -10.2125612564       -1.2964691852  MEMB      91              0.0000000000
     12554        91  DOPC      H17Y           33.2691579950       -8.8970260892       -0.1548701251  MEMB      91              0.0000000000
     12555        91  DOPC      C318           31.2773906921       -9.7354692557       -0.4588635261  MEMB      91              0.0000000000
     12556        91  DOPC      H18X           31.3340624657      -10.6635532879        0.1382407166  MEMB      91              0.0000000000
     12557        91  DOPC      H18Y           30.7701289971       -9.0133671557        0.1866250904  MEMB      91              0.0000000000
     12558        91  DOPC      H18Z           30.5862164236       -9.9280983321       -1.2985611915  MEMB      91              0.0000000000
     12559        92  DOPC      N              20.5749100886      -24.0002821820      -19.9896236271  MEMB      92              0.0000000000
     12560        92  DOPC      C12            19.3531003469      -23.2180564828      -19.4948717780  MEMB      92              0.0000000000
     12561        92  DOPC      H12A           19.0712417316      -23.5832891566      -18.5103928766  MEMB      92              0.0000000000
     12562        92  DOPC      H12B           18.5122409025      -23.4089153670      -20.1418133781  MEMB      92              0.0000000000
     12563        92  DOPC      C13            20.2456151293      -25.4094761144      -20.2229168783  MEMB      92              0.0000000000
     12564        92  DOPC      H13A           19.9169609879      -25.9131469490      -19.3175380446  MEMB      92              0.0000000000
     12565        92  DOPC      H13B           19.4015775428      -25.5439284779      -20.9001521006  MEMB      92              0.0000000000
     12566        92  DOPC      H13C           21.0652506254      -25.9794932192      -20.6433331695  MEMB      92              0.0000000000
     12567        92  DOPC      C14            21.6302661819      -23.9775235266      -18.9264708296  MEMB      92              0.0000000000
     12568        92  DOPC      H14A           22.5815341021      -24.3430212761      -19.2607951685  MEMB      92              0.0000000000
     12569        92  DOPC      H14B           21.7550063415      -22.9417720031      -18.6035455984  MEMB      92              0.0000000000
     12570        92  DOPC      H14C           21.2922412966      -24.4963429623      -18.0371591562  MEMB      92              0.0000000000
     12571        92  DOPC      C15            21.0694595037      -23.3999380645      -21.2745287883  MEMB      92              0.0000000000
     12572        92  DOPC      H15A           21.1676163465      -22.3209065943      -21.1470771262  MEMB      92              0.0000000000
     12573        92  DOPC      H15B           20.3446441049      -23.5643606219      -22.0629697358  MEMB      92              0.0000000000
     12574        92  DOPC      H15C           22.0111157287      -23.8263909317      -21.5979261103  MEMB      92              0.0000000000
     12575        92  DOPC      C11            19.5315871227      -21.6895895752      -19.3422212397  MEMB      92              0.0000000000
     12576        92  DOPC      H11A           19.7323984582      -21.1987225471      -20.3214122243  MEMB      92              0.0000000000
     12577        92  DOPC      H11B           18.5998510521      -21.2500121399      -18.9139935981  MEMB      92              0.0000000000
     12578        92  DOPC      P              21.1169121283      -20.0823242313      -17.9982779461  MEMB      92              0.0000000000
     12579        92  DOPC      O13            20.2692489153      -19.6332695160      -16.8766013543  MEMB      92              0.0000000000
     12580        92  DOPC      O14            21.2354617444      -19.1698491932      -19.1484876126  MEMB      92              0.0000000000
     12581        92  DOPC      O12            20.6139564781      -21.4844761911      -18.4651183790  MEMB      92              0.0000000000
     12582        92  DOPC      O11            22.5768622221      -20.4853936522      -17.5124082671  MEMB      92              0.0000000000
     12583        92  DOPC      C1             23.5629326128      -21.0509511918      -18.3834003682  MEMB      92              0.0000000000
     12584        92  DOPC      HA             23.3525464637      -20.8232704802      -19.4576212778  MEMB      92              0.0000000000
     12585        92  DOPC      HB             23.5723814762      -22.1525965470      -18.2669466924  MEMB      92              0.0000000000
     12586        92  DOPC      C2             25.0076912790      -20.5180612509      -18.0919013015  MEMB      92              0.0000000000
     12587        92  DOPC      HS             25.7022608073      -21.0304924626      -18.7981145088  MEMB      92              0.0000000000
     12588        92  DOPC      O21            25.4675553194      -20.7320277012      -16.7474518562  MEMB      92              0.0000000000
     12589        92  DOPC      C21            25.2253985469      -21.8722292573      -16.1490991514  MEMB      92              0.0000000000
     12590        92  DOPC      O22            25.2218257888      -22.9770051814      -16.6768884656  MEMB      92              0.0000000000
     12591        92  DOPC      C22            24.9015496616      -21.5783109573      -14.6678167244  MEMB      92              0.0000000000
     12592        92  DOPC      H2R            24.0667431957      -20.8431076117      -14.6737235617  MEMB      92              0.0000000000
     12593        92  DOPC      H2S            25.7928288191      -21.0834050309      -14.2354827314  MEMB      92              0.0000000000
     12594        92  DOPC      C3             25.1105861278      -18.9887815435      -18.4008529496  MEMB      92              0.0000000000
     12595        92  DOPC      HX             24.9753008229      -18.9045944712      -19.5024462440  MEMB      92              0.0000000000
     12596        92  DOPC      HY             26.1309017855      -18.6129039641      -18.1705235082  MEMB      92              0.0000000000
     12597        92  DOPC      O31            24.1061227950      -18.1390594765      -17.8211259280  MEMB      92              0.0000000000
     12598        92  DOPC      C31            23.8211186340      -18.1222827750      -16.5364600670  MEMB      92              0.0000000000
     12599        92  DOPC      O32            24.4240993751      -18.6314140714      -15.6148715648  MEMB      92              0.0000000000
     12600        92  DOPC      C32            22.6211773057      -17.2067645808      -16.3299047633  MEMB      92              0.0000000000
     12601        92  DOPC      H2X            22.9811576410      -16.1780057075      -16.1799507734  MEMB      92              0.0000000000
     12602        92  DOPC      H2Y            21.9708329163      -17.2712898516      -17.2235360639  MEMB      92              0.0000000000
     12603        92  DOPC      C23            24.4557270597      -22.7623752518      -13.7652791016  MEMB      92              0.0000000000
     12604        92  DOPC      H3R            25.1975560945      -23.5873421591      -13.7876991524  MEMB      92              0.0000000000
     12605        92  DOPC      H3S            23.4911615182      -23.1636086654      -14.1593047347  MEMB      92              0.0000000000
     12606        92  DOPC      C24            24.2203926074      -22.3172655475      -12.2992337081  MEMB      92              0.0000000000
     12607        92  DOPC      H4R            23.6349008787      -23.1074097462      -11.7769968265  MEMB      92              0.0000000000
     12608        92  DOPC      H4S            23.5990962516      -21.3966447293      -12.3239694312  MEMB      92              0.0000000000
     12609        92  DOPC      C25            25.5101400910      -22.0579647660      -11.4870738966  MEMB      92              0.0000000000
     12610        92  DOPC      H5R            26.1436742161      -21.2953920479      -11.9857730342  MEMB      92              0.0000000000
     12611        92  DOPC      H5S            26.0923337662      -23.0072274287      -11.4838198429  MEMB      92              0.0000000000
     12612        92  DOPC      C26            25.3112952901      -21.6731298622      -10.0017797745  MEMB      92              0.0000000000
     12613        92  DOPC      H6R            26.2808823480      -21.8509239662       -9.4833892982  MEMB      92              0.0000000000
     12614        92  DOPC      H6S            24.5795573102      -22.3652366884       -9.5423479568  MEMB      92              0.0000000000
     12615        92  DOPC      C27            24.8941216695      -20.2198750504       -9.7041537512  MEMB      92              0.0000000000
     12616        92  DOPC      H7R            24.6376747917      -19.7036101828      -10.6558559329  MEMB      92              0.0000000000
     12617        92  DOPC      H7S            25.7560220479      -19.6749461558       -9.2708427992  MEMB      92              0.0000000000
     12618        92  DOPC      C28            23.7029768915      -20.1039203640       -8.7277169268  MEMB      92              0.0000000000
     12619        92  DOPC      H8R            23.1398660799      -21.0420302160       -8.8336958764  MEMB      92              0.0000000000
     12620        92  DOPC      H8S            23.0453696483      -19.2815948749       -9.0946730349  MEMB      92              0.0000000000
     12621        92  DOPC      C29            23.9961021804      -19.8666376152       -7.2681191964  MEMB      92              0.0000000000
     12622        92  DOPC      H9R            24.0508801588      -18.8020323488       -7.0084187678  MEMB      92              0.0000000000
     12623        92  DOPC      C210           24.1861526505      -20.7763177900       -6.2894567483  MEMB      92              0.0000000000
     12624        92  DOPC      H10R           24.4334242631      -20.4107057562       -5.2812539353  MEMB      92              0.0000000000
     12625        92  DOPC      C211           24.1554091493      -22.2805662488       -6.4161503347  MEMB      92              0.0000000000
     12626        92  DOPC      H11R           25.1927012603      -22.6733490441       -6.4481554336  MEMB      92              0.0000000000
     12627        92  DOPC      H11S           23.6782563744      -22.5945030101       -7.3719290052  MEMB      92              0.0000000000
     12628        92  DOPC      C212           23.4275975949      -22.9908310678       -5.2530471626  MEMB      92              0.0000000000
     12629        92  DOPC      H12R           23.2768679548      -24.0558794556       -5.5485313582  MEMB      92              0.0000000000
     12630        92  DOPC      H12S           22.4259077782      -22.5378233102       -5.1089433517  MEMB      92              0.0000000000
     12631        92  DOPC      C213           24.1689940456      -22.9648868391       -3.8993226493  MEMB      92              0.0000000000
     12632        92  DOPC      H13R           24.4333691869      -21.9216317854       -3.6289711421  MEMB      92              0.0000000000
     12633        92  DOPC      H13S           25.1101118842      -23.5376689626       -3.9984333274  MEMB      92              0.0000000000
     12634        92  DOPC      C214           23.3419094239      -23.5995585936       -2.7667877951  MEMB      92              0.0000000000
     12635        92  DOPC      H14R           23.1014858169      -24.6449026789       -3.0725679278  MEMB      92              0.0000000000
     12636        92  DOPC      H14S           22.3783729657      -23.0511198650       -2.6797026254  MEMB      92              0.0000000000
     12637        92  DOPC      C215           24.0147143111      -23.6541826577       -1.3753298726  MEMB      92              0.0000000000
     12638        92  DOPC      H15R           25.0187687933      -24.1224807740       -1.4290526773  MEMB      92              0.0000000000
     12639        92  DOPC      H15S           23.3810050099      -24.3227555829       -0.7478290495  MEMB      92              0.0000000000
     12640        92  DOPC      C216           24.0729290015      -22.3110795942       -0.6264973049  MEMB      92              0.0000000000
     12641        92  DOPC      H16R           23.1487094858      -21.7526230897       -0.8834241338  MEMB      92              0.0000000000
     12642        92  DOPC      H16S           24.9484801401      -21.7134413451       -0.9609848450  MEMB      92              0.0000000000
     12643        92  DOPC      C217           24.0864757688      -22.4612010738        0.9063349593  MEMB      92              0.0000000000
     12644        92  DOPC      H17R           25.0656135401      -22.8715206523        1.2297680031  MEMB      92              0.0000000000
     12645        92  DOPC      H17S           23.3136337618      -23.2064763435        1.1965632773  MEMB      92              0.0000000000
     12646        92  DOPC      C218           23.8097698800      -21.1586117868        1.6661036403  MEMB      92              0.0000000000
     12647        92  DOPC      H18R           22.8042696489      -20.7589415499        1.4102352105  MEMB      92              0.0000000000
     12648        92  DOPC      H18S           24.5681241002      -20.3860632175        1.4189227717  MEMB      92              0.0000000000
     12649        92  DOPC      H18T           23.8393017406      -21.3287030782        2.7649388034  MEMB      92              0.0000000000
     12650        92  DOPC      C33            21.7973581200      -17.5888552094      -15.0995325012  MEMB      92              0.0000000000
     12651        92  DOPC      H3X            22.3226951737      -17.2327488649      -14.1873640129  MEMB      92              0.0000000000
     12652        92  DOPC      H3Y            21.7052842066      -18.6988460269      -15.0253999121  MEMB      92              0.0000000000
     12653        92  DOPC      C34            20.3865903942      -16.9958344278      -15.2092995584  MEMB      92              0.0000000000
     12654        92  DOPC      H4X            19.9310641682      -17.3325560067      -16.1705595292  MEMB      92              0.0000000000
     12655        92  DOPC      H4Y            20.4480830409      -15.8899745903      -15.2363372740  MEMB      92              0.0000000000
     12656        92  DOPC      C35            19.4624699300      -17.4576476353      -14.0785039359  MEMB      92              0.0000000000
     12657        92  DOPC      H5X            19.2039886299      -18.5253180197      -14.2767030117  MEMB      92              0.0000000000
     12658        92  DOPC      H5Y            18.5187993961      -16.8738167069      -14.1023828754  MEMB      92              0.0000000000
     12659        92  DOPC      C36            20.0999328123      -17.3487564757      -12.6923765635  MEMB      92              0.0000000000
     12660        92  DOPC      H6X            19.4078488220      -17.7137644112      -11.9110331217  MEMB      92              0.0000000000
     12661        92  DOPC      H6Y            20.9913501600      -18.0136561428      -12.6533683485  MEMB      92              0.0000000000
     12662        92  DOPC      C37            20.5276288180      -15.9402002668      -12.2967358451  MEMB      92              0.0000000000
     12663        92  DOPC      H7X            20.9623933624      -15.4145970023      -13.1739165492  MEMB      92              0.0000000000
     12664        92  DOPC      H7Y            19.6324325379      -15.3659972211      -11.9691163878  MEMB      92              0.0000000000
     12665        92  DOPC      C38            21.5645590629      -16.0640205481      -11.1790691962  MEMB      92              0.0000000000
     12666        92  DOPC      H8X            22.3918439221      -16.7166490711      -11.5401289211  MEMB      92              0.0000000000
     12667        92  DOPC      H8Y            21.0889456784      -16.5805360632      -10.3148468821  MEMB      92              0.0000000000
     12668        92  DOPC      C39            22.1254769499      -14.7280200360      -10.8178934258  MEMB      92              0.0000000000
     12669        92  DOPC      H9X            22.2431348546      -14.0399464316      -11.6682986675  MEMB      92              0.0000000000
     12670        92  DOPC      C310           22.4311108536      -14.3369927852       -9.5725064618  MEMB      92              0.0000000000
     12671        92  DOPC      H10X           22.7999987150      -13.3136991632       -9.4242870821  MEMB      92              0.0000000000
     12672        92  DOPC      C311           22.2683445774      -15.1616861426       -8.3121272141  MEMB      92              0.0000000000
     12673        92  DOPC      H11X           23.0448634577      -14.8568211640       -7.5850659141  MEMB      92              0.0000000000
     12674        92  DOPC      H11Y           22.4084680759      -16.2472781376       -8.5047278114  MEMB      92              0.0000000000
     12675        92  DOPC      C312           20.8518241684      -14.9176213542       -7.7494923857  MEMB      92              0.0000000000
     12676        92  DOPC      H12X           20.1186667149      -15.2613208109       -8.5056439601  MEMB      92              0.0000000000
     12677        92  DOPC      H12Y           20.7007337911      -13.8138399498       -7.6723256071  MEMB      92              0.0000000000
     12678        92  DOPC      C313           20.4464373322      -15.5038745121       -6.3709421953  MEMB      92              0.0000000000
     12679        92  DOPC      H13X           20.9714257382      -15.0572336446       -5.5134813395  MEMB      92              0.0000000000
     12680        92  DOPC      H13Y           19.4028500312      -15.1666723855       -6.2265391029  MEMB      92              0.0000000000
     12681        92  DOPC      C314           20.5037046671      -17.0201686149       -6.1208665270  MEMB      92              0.0000000000
     12682        92  DOPC      H14X           20.8817436978      -17.5061960060       -7.0424808434  MEMB      92              0.0000000000
     12683        92  DOPC      H14Y           21.2613440080      -17.2011969176       -5.3316077300  MEMB      92              0.0000000000
     12684        92  DOPC      C315           19.1335288520      -17.6148029587       -5.6867517129  MEMB      92              0.0000000000
     12685        92  DOPC      H15X           18.7247639907      -18.0368866048       -6.6261832434  MEMB      92              0.0000000000
     12686        92  DOPC      H15Y           18.4163792673      -16.8535149417       -5.3389351492  MEMB      92              0.0000000000
     12687        92  DOPC      C316           19.1029237794      -18.7990306588       -4.7038459414  MEMB      92              0.0000000000
     12688        92  DOPC      H16X           18.4316324346      -19.5650802235       -5.1512317053  MEMB      92              0.0000000000
     12689        92  DOPC      H16Y           20.1303815454      -19.2245130216       -4.6313177290  MEMB      92              0.0000000000
     12690        92  DOPC      C317           18.4980284711      -18.6998474749       -3.3190735198  MEMB      92              0.0000000000
     12691        92  DOPC      H17X           18.4249160982      -17.6450782497       -2.9903053626  MEMB      92              0.0000000000
     12692        92  DOPC      H17Y           17.4783144732      -19.1344121812       -3.3650653968  MEMB      92              0.0000000000
     12693        92  DOPC      C318           19.3712154867      -19.5642151698       -2.4127882326  MEMB      92              0.0000000000
     12694        92  DOPC      H18X           19.4523795330      -20.5966815995       -2.8000868426  MEMB      92              0.0000000000
     12695        92  DOPC      H18Y           20.3744474529      -19.1742418248       -2.4881876683  MEMB      92              0.0000000000
     12696        92  DOPC      H18Z           19.1469904543      -19.5638815004       -1.3355106500  MEMB      92              0.0000000000
     12697        93  DOPC      N             -13.0625061137      -28.7403083717      -20.4337862811  MEMB      93              0.0000000000
     12698        93  DOPC      C12           -12.4235221347      -27.4176706022      -20.0338388360  MEMB      93              0.0000000000
     12699        93  DOPC      H12A          -12.2415631777      -26.8330428110      -20.9302454961  MEMB      93              0.0000000000
     12700        93  DOPC      H12B          -11.4748201431      -27.6217799908      -19.5537006645  MEMB      93              0.0000000000
     12701        93  DOPC      C13           -14.4585756946      -28.4659208210      -20.9080565408  MEMB      93              0.0000000000
     12702        93  DOPC      H13A          -15.0063430359      -27.9650685154      -20.1087109416  MEMB      93              0.0000000000
     12703        93  DOPC      H13B          -14.4279178811      -27.7496667566      -21.7266776647  MEMB      93              0.0000000000
     12704        93  DOPC      H13C          -14.9785875479      -29.3542928638      -21.2388797477  MEMB      93              0.0000000000
     12705        93  DOPC      C14           -13.0760908545      -29.6383713244      -19.2339335444  MEMB      93              0.0000000000
     12706        93  DOPC      H14A          -13.6437662051      -29.1370379814      -18.4446661103  MEMB      93              0.0000000000
     12707        93  DOPC      H14B          -13.5437653226      -30.5965183171      -19.4148999082  MEMB      93              0.0000000000
     12708        93  DOPC      H14C          -12.0889218365      -29.7702458495      -18.8144862442  MEMB      93              0.0000000000
     12709        93  DOPC      C15           -12.2627161817      -29.3241460352      -21.5379445613  MEMB      93              0.0000000000
     12710        93  DOPC      H15A          -11.2390813807      -29.4984846849      -21.2397123096  MEMB      93              0.0000000000
     12711        93  DOPC      H15B          -12.2235755814      -28.6337976616      -22.3769060890  MEMB      93              0.0000000000
     12712        93  DOPC      H15C          -12.6767064428      -30.2658608458      -21.8771011508  MEMB      93              0.0000000000
     12713        93  DOPC      C11           -13.2222085680      -26.4916537679      -19.0994603437  MEMB      93              0.0000000000
     12714        93  DOPC      H11A          -12.5170883169      -25.7349640815      -18.6706579202  MEMB      93              0.0000000000
     12715        93  DOPC      H11B          -13.9673261137      -25.9478419168      -19.7337037295  MEMB      93              0.0000000000
     12716        93  DOPC      P             -14.9177767767      -26.3595110087      -17.2304460117  MEMB      93              0.0000000000
     12717        93  DOPC      O13           -16.1218685971      -26.2624917483      -18.0950748638  MEMB      93              0.0000000000
     12718        93  DOPC      O14           -14.2235095860      -25.1308375356      -16.7802299406  MEMB      93              0.0000000000
     12719        93  DOPC      O12           -13.8626839761      -27.2266847084      -18.0566363027  MEMB      93              0.0000000000
     12720        93  DOPC      O11           -15.1913024713      -27.2923264952      -15.9964738872  MEMB      93              0.0000000000
     12721        93  DOPC      C1            -15.0498763921      -28.7006412998      -16.0691085470  MEMB      93              0.0000000000
     12722        93  DOPC      HA            -14.4247957744      -29.0639494103      -16.9076295463  MEMB      93              0.0000000000
     12723        93  DOPC      HB            -16.0419798362      -29.1383812458      -16.2388313173  MEMB      93              0.0000000000
     12724        93  DOPC      C2            -14.3988407673      -29.2419766177      -14.7774744247  MEMB      93              0.0000000000
     12725        93  DOPC      HS            -14.3848301013      -30.3482735415      -14.8629595321  MEMB      93              0.0000000000
     12726        93  DOPC      O21           -15.0433191306      -28.8776041689      -13.5673222318  MEMB      93              0.0000000000
     12727        93  DOPC      C21           -16.3233929585      -28.6509471632      -13.5591782910  MEMB      93              0.0000000000
     12728        93  DOPC      O22           -17.1802338439      -29.1431958391      -14.2695338053  MEMB      93              0.0000000000
     12729        93  DOPC      C22           -16.6556087228      -27.7821061444      -12.3678701869  MEMB      93              0.0000000000
     12730        93  DOPC      H2R           -17.7026647947      -28.0695247027      -12.1455970000  MEMB      93              0.0000000000
     12731        93  DOPC      H2S           -16.5730653929      -26.7159499342      -12.6603075752  MEMB      93              0.0000000000
     12732        93  DOPC      C3            -12.9508081761      -28.7293538359      -14.6210108930  MEMB      93              0.0000000000
     12733        93  DOPC      HX            -12.4274586878      -28.9628338281      -15.5763375771  MEMB      93              0.0000000000
     12734        93  DOPC      HY            -12.4790093108      -29.2825674571      -13.7865843131  MEMB      93              0.0000000000
     12735        93  DOPC      O31           -12.9281029342      -27.3378111974      -14.2649338541  MEMB      93              0.0000000000
     12736        93  DOPC      C31           -12.0706050683      -26.5745095738      -14.9116905448  MEMB      93              0.0000000000
     12737        93  DOPC      O32           -11.2487879768      -26.9629002900      -15.7251321694  MEMB      93              0.0000000000
     12738        93  DOPC      C32           -12.1060328531      -25.1804909244      -14.3031823394  MEMB      93              0.0000000000
     12739        93  DOPC      H2X           -12.1135226354      -24.4607378217      -15.1480383529  MEMB      93              0.0000000000
     12740        93  DOPC      H2Y           -13.0466093774      -25.0505664050      -13.7336410959  MEMB      93              0.0000000000
     12741        93  DOPC      C23           -15.8182367711      -28.1110985666      -11.1351594424  MEMB      93              0.0000000000
     12742        93  DOPC      H3R           -16.2088839702      -27.5415602865      -10.2596202726  MEMB      93              0.0000000000
     12743        93  DOPC      H3S           -14.7578255607      -27.8053718744      -11.2863503639  MEMB      93              0.0000000000
     12744        93  DOPC      C24           -15.9079878496      -29.6101170747      -10.8586498505  MEMB      93              0.0000000000
     12745        93  DOPC      H4R           -15.5694338659      -30.2255927277      -11.7211368142  MEMB      93              0.0000000000
     12746        93  DOPC      H4S           -16.9658181538      -29.8855717440      -10.6632072074  MEMB      93              0.0000000000
     12747        93  DOPC      C25           -15.0171909129      -29.9668567726       -9.6985102402  MEMB      93              0.0000000000
     12748        93  DOPC      H5R           -14.0443407474      -29.4403484722       -9.8325542233  MEMB      93              0.0000000000
     12749        93  DOPC      H5S           -14.8080899572      -31.0592124276       -9.7141912298  MEMB      93              0.0000000000
     12750        93  DOPC      C26           -15.6828235674      -29.5445004590       -8.3957142669  MEMB      93              0.0000000000
     12751        93  DOPC      H6R           -16.6998714397      -29.1313214842       -8.5822335166  MEMB      93              0.0000000000
     12752        93  DOPC      H6S           -15.0713379477      -28.7024317476       -8.0087479563  MEMB      93              0.0000000000
     12753        93  DOPC      C27           -15.8090102847      -30.7328111338       -7.4367410715  MEMB      93              0.0000000000
     12754        93  DOPC      H7R           -14.9718093374      -31.4345228448       -7.6292988380  MEMB      93              0.0000000000
     12755        93  DOPC      H7S           -16.7362217213      -31.2994689143       -7.6297181870  MEMB      93              0.0000000000
     12756        93  DOPC      C28           -15.8582659097      -30.3960504332       -5.9561983688  MEMB      93              0.0000000000
     12757        93  DOPC      H8R           -15.6686931304      -31.3494367935       -5.4155788939  MEMB      93              0.0000000000
     12758        93  DOPC      H8S           -16.8869170110      -30.0706757496       -5.6891704920  MEMB      93              0.0000000000
     12759        93  DOPC      C29           -14.8102558888      -29.3702149627       -5.6484404086  MEMB      93              0.0000000000
     12760        93  DOPC      H9R           -13.7983146011      -29.6529437957       -5.9318733533  MEMB      93              0.0000000000
     12761        93  DOPC      C210          -15.0105760464      -28.1625665690       -5.1248715304  MEMB      93              0.0000000000
     12762        93  DOPC      H10R          -14.1547714111      -27.5027516752       -4.9105752101  MEMB      93              0.0000000000
     12763        93  DOPC      C211          -16.3636026189      -27.6571110495       -4.7597477000  MEMB      93              0.0000000000
     12764        93  DOPC      H11R          -17.1185361070      -28.0101118716       -5.4980655962  MEMB      93              0.0000000000
     12765        93  DOPC      H11S          -16.3500080941      -26.5644213398       -4.8531503905  MEMB      93              0.0000000000
     12766        93  DOPC      C212          -16.8094951572      -28.0832736985       -3.3475317460  MEMB      93              0.0000000000
     12767        93  DOPC      H12R          -16.6713667211      -29.1732053799       -3.1875724212  MEMB      93              0.0000000000
     12768        93  DOPC      H12S          -17.8979839987      -27.8676478060       -3.2654466167  MEMB      93              0.0000000000
     12769        93  DOPC      C213          -16.1773548621      -27.2807676196       -2.2086130921  MEMB      93              0.0000000000
     12770        93  DOPC      H13R          -16.8545509656      -27.3184783469       -1.3287013292  MEMB      93              0.0000000000
     12771        93  DOPC      H13S          -16.1075784016      -26.2155821228       -2.5252535437  MEMB      93              0.0000000000
     12772        93  DOPC      C214          -14.8042613098      -27.7528592615       -1.7258161507  MEMB      93              0.0000000000
     12773        93  DOPC      H14R          -14.1583443939      -27.9304370788       -2.6084844673  MEMB      93              0.0000000000
     12774        93  DOPC      H14S          -14.8833474700      -28.7072968086       -1.1650916910  MEMB      93              0.0000000000
     12775        93  DOPC      C215          -14.2054945664      -26.6264039941       -0.8781456956  MEMB      93              0.0000000000
     12776        93  DOPC      H15R          -14.9432709206      -26.3179294748       -0.1032650554  MEMB      93              0.0000000000
     12777        93  DOPC      H15S          -14.0735226689      -25.7693387572       -1.5804900319  MEMB      93              0.0000000000
     12778        93  DOPC      C216          -12.8441329469      -26.8369278434       -0.2027748556  MEMB      93              0.0000000000
     12779        93  DOPC      H16R          -12.9352340163      -27.3310523244        0.7903591938  MEMB      93              0.0000000000
     12780        93  DOPC      H16S          -12.4989489445      -25.7940176917       -0.0624880020  MEMB      93              0.0000000000
     12781        93  DOPC      C217          -11.7698656432      -27.4924400564       -1.0646444555  MEMB      93              0.0000000000
     12782        93  DOPC      H17R          -12.2692138727      -27.8196222678       -1.9917629404  MEMB      93              0.0000000000
     12783        93  DOPC      H17S          -11.3585669342      -28.4006015609       -0.5666805597  MEMB      93              0.0000000000
     12784        93  DOPC      C218          -10.6346783000      -26.5589490259       -1.4857879081  MEMB      93              0.0000000000
     12785        93  DOPC      H18R           -9.7286391828      -26.7571296716       -0.8844438476  MEMB      93              0.0000000000
     12786        93  DOPC      H18S          -10.9083337420      -25.4883070378       -1.3871507071  MEMB      93              0.0000000000
     12787        93  DOPC      H18T          -10.3770735556      -26.7461584026       -2.5489188478  MEMB      93              0.0000000000
     12788        93  DOPC      C33           -10.8690049301      -24.9646913949      -13.4075707742  MEMB      93              0.0000000000
     12789        93  DOPC      H3X           -10.8829204574      -23.9395337040      -12.9756412771  MEMB      93              0.0000000000
     12790        93  DOPC      H3Y            -9.9732061886      -25.0280279710      -14.0700034996  MEMB      93              0.0000000000
     12791        93  DOPC      C34           -10.6934932377      -26.0102089155      -12.2809313133  MEMB      93              0.0000000000
     12792        93  DOPC      H4X            -9.6069230993      -26.0508216785      -12.0545832696  MEMB      93              0.0000000000
     12793        93  DOPC      H4Y           -10.9630295457      -27.0329812207      -12.6164926270  MEMB      93              0.0000000000
     12794        93  DOPC      C35           -11.3950608731      -25.6937577392      -10.9523663935  MEMB      93              0.0000000000
     12795        93  DOPC      H5X           -12.2203400832      -26.4189184798      -10.7775933262  MEMB      93              0.0000000000
     12796        93  DOPC      H5Y           -11.8486261270      -24.6787279136      -11.0090258683  MEMB      93              0.0000000000
     12797        93  DOPC      C36           -10.4156779103      -25.7308372089       -9.7648170281  MEMB      93              0.0000000000
     12798        93  DOPC      H6X            -9.6494502847      -24.9486393282       -9.9476335334  MEMB      93              0.0000000000
     12799        93  DOPC      H6Y           -10.9513285365      -25.4482023521       -8.8329530542  MEMB      93              0.0000000000
     12800        93  DOPC      C37            -9.6968863487      -27.0785028954       -9.5518068472  MEMB      93              0.0000000000
     12801        93  DOPC      H7X           -10.4612329472      -27.8655857275       -9.3661778927  MEMB      93              0.0000000000
     12802        93  DOPC      H7Y            -9.1357190778      -27.3655738287      -10.4679764903  MEMB      93              0.0000000000
     12803        93  DOPC      C38            -8.7090038007      -27.0226860737       -8.3696396953  MEMB      93              0.0000000000
     12804        93  DOPC      H8X            -9.2641727319      -26.6605222153       -7.4751251186  MEMB      93              0.0000000000
     12805        93  DOPC      H8Y            -7.9322550764      -26.2538322129       -8.5820537081  MEMB      93              0.0000000000
     12806        93  DOPC      C39            -8.0337172817      -28.3345619942       -8.0680252573  MEMB      93              0.0000000000
     12807        93  DOPC      H9X            -7.0900027186      -28.5147513084       -8.6098268679  MEMB      93              0.0000000000
     12808        93  DOPC      C310           -8.5257659630      -29.3023530840       -7.2741953114  MEMB      93              0.0000000000
     12809        93  DOPC      H10X           -7.9337072989      -30.2142197262       -7.1224841742  MEMB      93              0.0000000000
     12810        93  DOPC      C311           -9.8372621886      -29.2980673954       -6.5354554696  MEMB      93              0.0000000000
     12811        93  DOPC      H11X          -10.0983063185      -30.3632988235       -6.3583814748  MEMB      93              0.0000000000
     12812        93  DOPC      H11Y          -10.6285907881      -28.8575283591       -7.1837745458  MEMB      93              0.0000000000
     12813        93  DOPC      C312           -9.9605506459      -28.6306694273       -5.1587989985  MEMB      93              0.0000000000
     12814        93  DOPC      H12X           -9.7399313620      -27.5439412581       -5.2521311744  MEMB      93              0.0000000000
     12815        93  DOPC      H12Y           -9.2345969709      -29.0947483696       -4.4687477752  MEMB      93              0.0000000000
     12816        93  DOPC      C313          -11.3443697665      -28.8365879889       -4.5257523967  MEMB      93              0.0000000000
     12817        93  DOPC      H13X          -11.6111216747      -27.9307729644       -3.9435368529  MEMB      93              0.0000000000
     12818        93  DOPC      H13Y          -12.0832267789      -28.9056720743       -5.3388182128  MEMB      93              0.0000000000
     12819        93  DOPC      C314          -11.3986104055      -30.0766881095       -3.6022291728  MEMB      93              0.0000000000
     12820        93  DOPC      H14X          -11.1006306713      -30.9777727884       -4.1759092489  MEMB      93              0.0000000000
     12821        93  DOPC      H14Y          -10.6270166249      -29.8730075736       -2.8360542213  MEMB      93              0.0000000000
     12822        93  DOPC      C315          -12.7626071366      -30.2943711972       -2.9075179480  MEMB      93              0.0000000000
     12823        93  DOPC      H15X          -13.4813488416      -29.8365312252       -3.6033543328  MEMB      93              0.0000000000
     12824        93  DOPC      H15Y          -12.8378422930      -29.7242414823       -1.9649606759  MEMB      93              0.0000000000
     12825        93  DOPC      C316          -13.2718058722      -31.7190300148       -2.5844114874  MEMB      93              0.0000000000
     12826        93  DOPC      H16X          -12.7406879011      -32.4647442782       -3.2108580822  MEMB      93              0.0000000000
     12827        93  DOPC      H16Y          -13.0511815225      -31.9747764687       -1.5274454373  MEMB      93              0.0000000000
     12828        93  DOPC      C317          -14.7941855656      -31.8306000735       -2.8500923687  MEMB      93              0.0000000000
     12829        93  DOPC      H17X          -15.0816906233      -30.9833434094       -3.5026068516  MEMB      93              0.0000000000
     12830        93  DOPC      H17Y          -15.0071330447      -32.7567763791       -3.4275523824  MEMB      93              0.0000000000
     12831        93  DOPC      C318          -15.7439184430      -31.7546216275       -1.6479160662  MEMB      93              0.0000000000
     12832        93  DOPC      H18X          -16.7797511953      -31.5517918055       -2.0009137467  MEMB      93              0.0000000000
     12833        93  DOPC      H18Y          -15.7549148825      -32.7064871477       -1.0815284260  MEMB      93              0.0000000000
     12834        93  DOPC      H18Z          -15.4643966733      -30.9262129683       -0.9682285351  MEMB      93              0.0000000000
     12835        94  DOPC      N              24.3142453348       14.7803089382      -19.0780701959  MEMB      94              0.0000000000
     12836        94  DOPC      C12            25.2042166198       15.2329325136      -17.9189410374  MEMB      94              0.0000000000
     12837        94  DOPC      H12A           24.9508477946       14.6664723178      -17.0300250437  MEMB      94              0.0000000000
     12838        94  DOPC      H12B           25.0011046424       16.2793686873      -17.7054302254  MEMB      94              0.0000000000
     12839        94  DOPC      C13            24.4629262972       15.7885574946      -20.1820351689  MEMB      94              0.0000000000
     12840        94  DOPC      H13A           23.9812135695       16.7320226759      -19.9592544193  MEMB      94              0.0000000000
     12841        94  DOPC      H13B           25.5229561944       16.0118156124      -20.3305463775  MEMB      94              0.0000000000
     12842        94  DOPC      H13C           24.0357512842       15.4198796556      -21.1018599151  MEMB      94              0.0000000000
     12843        94  DOPC      C14            22.8608374337       14.6621735477      -18.7426086982  MEMB      94              0.0000000000
     12844        94  DOPC      H14A           22.7062572649       13.8304205963      -18.0707581756  MEMB      94              0.0000000000
     12845        94  DOPC      H14B           22.4383930893       15.5712733371      -18.3329666580  MEMB      94              0.0000000000
     12846        94  DOPC      H14C           22.3161139392       14.4098114820      -19.6533566820  MEMB      94              0.0000000000
     12847        94  DOPC      C15            24.7567616447       13.4357089407      -19.5903475454  MEMB      94              0.0000000000
     12848        94  DOPC      H15A           24.4136866374       12.5902619387      -18.9944975824  MEMB      94              0.0000000000
     12849        94  DOPC      H15B           25.8391975116       13.3831089815      -19.6465551269  MEMB      94              0.0000000000
     12850        94  DOPC      H15C           24.4147026923       13.2720303996      -20.6108117548  MEMB      94              0.0000000000
     12851        94  DOPC      C11            26.7525622020       15.1120399385      -18.1339413966  MEMB      94              0.0000000000
     12852        94  DOPC      H11A           27.2755948074       15.4600539843      -17.2096235938  MEMB      94              0.0000000000
     12853        94  DOPC      H11B           26.9966852775       14.0282594698      -18.2143121867  MEMB      94              0.0000000000
     12854        94  DOPC      P              28.0490267304       17.1428211041      -19.2713016936  MEMB      94              0.0000000000
     12855        94  DOPC      O13            28.3786481563       17.5085696240      -20.6721991789  MEMB      94              0.0000000000
     12856        94  DOPC      O14            29.1888890906       16.9712703372      -18.3556761062  MEMB      94              0.0000000000
     12857        94  DOPC      O12            27.2255308031       15.7732601982      -19.3182527643  MEMB      94              0.0000000000
     12858        94  DOPC      O11            26.9742902195       18.1361747962      -18.7240724873  MEMB      94              0.0000000000
     12859        94  DOPC      C1             27.3086973863       19.4103780515      -18.1996355824  MEMB      94              0.0000000000
     12860        94  DOPC      HA             27.1090521381       20.1907454169      -18.9695084483  MEMB      94              0.0000000000
     12861        94  DOPC      HB             28.3779308803       19.5081323198      -17.8873225717  MEMB      94              0.0000000000
     12862        94  DOPC      C2             26.3727115895       19.6673131639      -17.0061478147  MEMB      94              0.0000000000
     12863        94  DOPC      HS             26.5047020894       20.7300163468      -16.6770273408  MEMB      94              0.0000000000
     12864        94  DOPC      O21            26.5974329567       18.7116000932      -15.9387064253  MEMB      94              0.0000000000
     12865        94  DOPC      C21            27.6419365931       19.0840151367      -15.1994413110  MEMB      94              0.0000000000
     12866        94  DOPC      O22            28.1888942592       20.1661557007      -15.2871700798  MEMB      94              0.0000000000
     12867        94  DOPC      C22            27.9335294359       18.0138726282      -14.1477674322  MEMB      94              0.0000000000
     12868        94  DOPC      H2R            28.1622454687       17.0646383068      -14.6733251578  MEMB      94              0.0000000000
     12869        94  DOPC      H2S            27.0133353390       17.8798402362      -13.5457790392  MEMB      94              0.0000000000
     12870        94  DOPC      C3             24.9080332534       19.5465954197      -17.4566782409  MEMB      94              0.0000000000
     12871        94  DOPC      HX             24.6902717816       18.4916513401      -17.7418755189  MEMB      94              0.0000000000
     12872        94  DOPC      HY             24.7665936748       20.1849318346      -18.3576633679  MEMB      94              0.0000000000
     12873        94  DOPC      O31            24.1103843991       20.0451784255      -16.3787653299  MEMB      94              0.0000000000
     12874        94  DOPC      C31            23.3471889372       19.1846034391      -15.7280315935  MEMB      94              0.0000000000
     12875        94  DOPC      O32            22.9340689365       18.1177888372      -16.1425159971  MEMB      94              0.0000000000
     12876        94  DOPC      C32            23.0523907213       19.7982859869      -14.3618717607  MEMB      94              0.0000000000
     12877        94  DOPC      H2X            23.3505023898       20.8682472383      -14.3602325743  MEMB      94              0.0000000000
     12878        94  DOPC      H2Y            21.9678294655       19.7272573292      -14.1609666679  MEMB      94              0.0000000000
     12879        94  DOPC      C23            29.1006904978       18.4406489187      -13.2296194485  MEMB      94              0.0000000000
     12880        94  DOPC      H3R            28.9414978423       19.4911881945      -12.8890905906  MEMB      94              0.0000000000
     12881        94  DOPC      H3S            30.0400442429       18.4251588395      -13.8334951738  MEMB      94              0.0000000000
     12882        94  DOPC      C24            29.3104489268       17.5603214011      -11.9899432528  MEMB      94              0.0000000000
     12883        94  DOPC      H4R            30.2345263942       17.9377954207      -11.4935951991  MEMB      94              0.0000000000
     12884        94  DOPC      H4S            29.4967066352       16.5058983189      -12.2905269793  MEMB      94              0.0000000000
     12885        94  DOPC      C25            28.1717658773       17.6001565605      -10.9597906177  MEMB      94              0.0000000000
     12886        94  DOPC      H5R            27.3141544944       17.0088011845      -11.3426295938  MEMB      94              0.0000000000
     12887        94  DOPC      H5S            27.8152726596       18.6467102537      -10.8470053554  MEMB      94              0.0000000000
     12888        94  DOPC      C26            28.6353493576       17.0631093860       -9.5915223155  MEMB      94              0.0000000000
     12889        94  DOPC      H6R            29.7283253440       17.2502043241       -9.5093171013  MEMB      94              0.0000000000
     12890        94  DOPC      H6S            28.4722779497       15.9652158803       -9.5521312420  MEMB      94              0.0000000000
     12891        94  DOPC      C27            27.9888663524       17.7441466230       -8.3751537655  MEMB      94              0.0000000000
     12892        94  DOPC      H7R            26.8935585142       17.6288155680       -8.3946336069  MEMB      94              0.0000000000
     12893        94  DOPC      H7S            28.1738423772       18.8319884968       -8.4555567957  MEMB      94              0.0000000000
     12894        94  DOPC      C28            28.4915669009       17.2397438077       -7.0065467877  MEMB      94              0.0000000000
     12895        94  DOPC      H8R            28.1803532360       17.9805176823       -6.2377083300  MEMB      94              0.0000000000
     12896        94  DOPC      H8S            29.6030230053       17.2403357070       -7.0028993191  MEMB      94              0.0000000000
     12897        94  DOPC      C29            27.9508742582       15.8625665239       -6.7040565163  MEMB      94              0.0000000000
     12898        94  DOPC      H9R            28.3961927636       15.0675671443       -7.3227824241  MEMB      94              0.0000000000
     12899        94  DOPC      C210           27.0117137437       15.5253108159       -5.7932372575  MEMB      94              0.0000000000
     12900        94  DOPC      H10R           26.7136586393       14.4677624897       -5.7218587827  MEMB      94              0.0000000000
     12901        94  DOPC      C211           26.2719641424       16.4485568069       -4.8495550206  MEMB      94              0.0000000000
     12902        94  DOPC      H11R           25.2139936771       16.5379923057       -5.1773944154  MEMB      94              0.0000000000
     12903        94  DOPC      H11S           26.6856145232       17.4805496967       -4.8732214247  MEMB      94              0.0000000000
     12904        94  DOPC      C212           26.2802103450       15.9904086615       -3.3687071180  MEMB      94              0.0000000000
     12905        94  DOPC      H12R           25.6894795725       15.0562955772       -3.2465465427  MEMB      94              0.0000000000
     12906        94  DOPC      H12S           25.7694679365       16.7847601682       -2.7768538732  MEMB      94              0.0000000000
     12907        94  DOPC      C213           27.6989468757       15.7816738137       -2.8095388297  MEMB      94              0.0000000000
     12908        94  DOPC      H13R           28.3874555898       16.3864119232       -3.4466764905  MEMB      94              0.0000000000
     12909        94  DOPC      H13S           28.0080579990       14.7208331433       -2.9198768007  MEMB      94              0.0000000000
     12910        94  DOPC      C214           27.9245919013       16.2523574128       -1.3603708867  MEMB      94              0.0000000000
     12911        94  DOPC      H14R           27.2594195022       17.1125961761       -1.1346019932  MEMB      94              0.0000000000
     12912        94  DOPC      H14S           28.9750906455       16.6242501078       -1.2994073773  MEMB      94              0.0000000000
     12913        94  DOPC      C215           27.7879470173       15.1542395484       -0.2890684794  MEMB      94              0.0000000000
     12914        94  DOPC      H15R           28.3828916296       14.2683639916       -0.6064259042  MEMB      94              0.0000000000
     12915        94  DOPC      H15S           26.7289577252       14.8280158466       -0.2113214842  MEMB      94              0.0000000000
     12916        94  DOPC      C216           28.2844676765       15.5845793279        1.1063447732  MEMB      94              0.0000000000
     12917        94  DOPC      H16R           29.3791152199       15.7721076199        1.0728740240  MEMB      94              0.0000000000
     12918        94  DOPC      H16S           28.1188604470       14.7344173861        1.8072819634  MEMB      94              0.0000000000
     12919        94  DOPC      C217           27.5718351437       16.8272932571        1.6627588628  MEMB      94              0.0000000000
     12920        94  DOPC      H17R           27.4254470093       16.7025973910        2.7620435638  MEMB      94              0.0000000000
     12921        94  DOPC      H17S           26.5583176088       16.8715295425        1.2052803336  MEMB      94              0.0000000000
     12922        94  DOPC      C218           28.3194516974       18.1463478154        1.4227035079  MEMB      94              0.0000000000
     12923        94  DOPC      H18R           28.8624526514       18.1186888164        0.4554265353  MEMB      94              0.0000000000
     12924        94  DOPC      H18S           29.0620691263       18.3254817931        2.2299955579  MEMB      94              0.0000000000
     12925        94  DOPC      H18T           27.6086938774       19.0005013065        1.4026006153  MEMB      94              0.0000000000
     12926        94  DOPC      C33            23.8681145499       19.0645836774      -13.2972899709  MEMB      94              0.0000000000
     12927        94  DOPC      H3X            23.7755646778       19.5901739540      -12.3172954752  MEMB      94              0.0000000000
     12928        94  DOPC      H3Y            24.9515900380       19.0839355946      -13.5626439650  MEMB      94              0.0000000000
     12929        94  DOPC      C34            23.4077569265       17.6182254462      -13.1210818877  MEMB      94              0.0000000000
     12930        94  DOPC      H4X            23.3921074623       17.0428252731      -14.0709564556  MEMB      94              0.0000000000
     12931        94  DOPC      H4Y            22.3801945153       17.6128558720      -12.6929734083  MEMB      94              0.0000000000
     12932        94  DOPC      C35            24.3694241908       16.9168301158      -12.1834219227  MEMB      94              0.0000000000
     12933        94  DOPC      H5X            24.4969847596       17.6337519765      -11.3447067303  MEMB      94              0.0000000000
     12934        94  DOPC      H5Y            25.3582173709       16.7839557568      -12.6716368399  MEMB      94              0.0000000000
     12935        94  DOPC      C36            23.8874781937       15.5625939383      -11.6632220155  MEMB      94              0.0000000000
     12936        94  DOPC      H6X            22.8413301468       15.6555475402      -11.2954573640  MEMB      94              0.0000000000
     12937        94  DOPC      H6Y            23.8807364404       14.8195883834      -12.4938041482  MEMB      94              0.0000000000
     12938        94  DOPC      C37            24.7859197993       15.0578456363      -10.5229400773  MEMB      94              0.0000000000
     12939        94  DOPC      H7X            24.2942900936       14.1948002442      -10.0249419769  MEMB      94              0.0000000000
     12940        94  DOPC      H7Y            25.7303259066       14.6825086006      -10.9808266441  MEMB      94              0.0000000000
     12941        94  DOPC      C38            25.1723129041       16.1293048358       -9.4748304383  MEMB      94              0.0000000000
     12942        94  DOPC      H8X            25.7874451440       16.9041246128       -9.9649925130  MEMB      94              0.0000000000
     12943        94  DOPC      H8Y            25.8288729797       15.6372668642       -8.7249695752  MEMB      94              0.0000000000
     12944        94  DOPC      C39            23.9962520902       16.7681020166       -8.7894238899  MEMB      94              0.0000000000
     12945        94  DOPC      H9X            23.1346374102       16.0944136505       -8.7768793495  MEMB      94              0.0000000000
     12946        94  DOPC      C310           23.8163923142       18.0360106491       -8.3560892609  MEMB      94              0.0000000000
     12947        94  DOPC      H10X           22.8773666051       18.2575358418       -7.8265530112  MEMB      94              0.0000000000
     12948        94  DOPC      C311           24.7476463440       19.2257994861       -8.4235116450  MEMB      94              0.0000000000
     12949        94  DOPC      H11X           24.1786895812       20.0980601045       -8.8162158839  MEMB      94              0.0000000000
     12950        94  DOPC      H11Y           25.5737024573       19.0616943685       -9.1506938625  MEMB      94              0.0000000000
     12951        94  DOPC      C312           25.3671281450       19.6596373587       -7.0751319414  MEMB      94              0.0000000000
     12952        94  DOPC      H12X           25.8584161108       20.6499238054       -7.2191803689  MEMB      94              0.0000000000
     12953        94  DOPC      H12Y           26.1638529475       18.9477288092       -6.7700024154  MEMB      94              0.0000000000
     12954        94  DOPC      C313           24.3802294686       19.7648176989       -5.9055601821  MEMB      94              0.0000000000
     12955        94  DOPC      H13X           23.4361324507       20.2539263910       -6.2324532980  MEMB      94              0.0000000000
     12956        94  DOPC      H13Y           24.1294014887       18.7405821826       -5.5475561614  MEMB      94              0.0000000000
     12957        94  DOPC      C314           24.9714984615       20.5724787379       -4.7459532531  MEMB      94              0.0000000000
     12958        94  DOPC      H14X           26.0221808339       20.2583913820       -4.5644615064  MEMB      94              0.0000000000
     12959        94  DOPC      H14Y           24.9882242167       21.6425415717       -5.0564263036  MEMB      94              0.0000000000
     12960        94  DOPC      C315           24.1566341460       20.4287513851       -3.4574806672  MEMB      94              0.0000000000
     12961        94  DOPC      H15X           24.4127264869       19.4844581935       -2.9272407590  MEMB      94              0.0000000000
     12962        94  DOPC      H15Y           23.0887488977       20.3663252356       -3.7496917271  MEMB      94              0.0000000000
     12963        94  DOPC      C316           24.2938792721       21.6224283008       -2.5105588590  MEMB      94              0.0000000000
     12964        94  DOPC      H16X           25.1807383542       21.4669582729       -1.8553259555  MEMB      94              0.0000000000
     12965        94  DOPC      H16Y           24.4405118276       22.5597730128       -3.0930701824  MEMB      94              0.0000000000
     12966        94  DOPC      C317           23.0703651985       21.8081561183       -1.6233203593  MEMB      94              0.0000000000
     12967        94  DOPC      H17X           23.1697413273       22.7846651100       -1.0954366505  MEMB      94              0.0000000000
     12968        94  DOPC      H17Y           22.1579539598       21.8655684915       -2.2582424504  MEMB      94              0.0000000000
     12969        94  DOPC      C318           22.9788698114       20.6722246146       -0.6056712444  MEMB      94              0.0000000000
     12970        94  DOPC      H18X           22.4127181445       20.9860815744        0.2935566056  MEMB      94              0.0000000000
     12971        94  DOPC      H18Y           22.5044736835       19.7699376281       -1.0268372613  MEMB      94              0.0000000000
     12972        94  DOPC      H18Z           24.0038384769       20.3823183247       -0.2872066850  MEMB      94              0.0000000000
     12973        95  DOPC      N              22.0481369628       22.7517536237      -17.5033771961  MEMB      95              0.0000000000
     12974        95  DOPC      C12            20.6976563219       23.3692672404      -17.8150203872  MEMB      95              0.0000000000
     12975        95  DOPC      H12A           20.7920255934       24.4535319084      -17.7848403991  MEMB      95              0.0000000000
     12976        95  DOPC      H12B           19.9991577649       23.0878739743      -17.0378791784  MEMB      95              0.0000000000
     12977        95  DOPC      C13            21.9371619862       21.2774229467      -17.7505529331  MEMB      95              0.0000000000
     12978        95  DOPC      H13A           21.5877745980       21.1282799860      -18.7741175299  MEMB      95              0.0000000000
     12979        95  DOPC      H13B           22.9119184313       20.8092554892      -17.6836721380  MEMB      95              0.0000000000
     12980        95  DOPC      H13C           21.2554947322       20.7966818411      -17.0587223040  MEMB      95              0.0000000000
     12981        95  DOPC      C14            22.4661646031       23.0378413050      -16.0961310939  MEMB      95              0.0000000000
     12982        95  DOPC      H14A           23.4502631190       22.6197224113      -15.9091437281  MEMB      95              0.0000000000
     12983        95  DOPC      H14B           22.5375565487       24.1058100646      -15.9214734681  MEMB      95              0.0000000000
     12984        95  DOPC      H14C           21.7765918024       22.6234091473      -15.3704164397  MEMB      95              0.0000000000
     12985        95  DOPC      C15            23.1044669323       23.2715286031      -18.4509956788  MEMB      95              0.0000000000
     12986        95  DOPC      H15A           23.1802698386       24.3550279838      -18.4095525574  MEMB      95              0.0000000000
     12987        95  DOPC      H15B           22.8305276222       23.0254511074      -19.4845356306  MEMB      95              0.0000000000
     12988        95  DOPC      H15C           24.0819390522       22.8476411450      -18.2464871530  MEMB      95              0.0000000000
     12989        95  DOPC      C11            20.0500175145       22.9823959832      -19.1758458432  MEMB      95              0.0000000000
     12990        95  DOPC      H11A           19.8534962875       21.8892125637      -19.2084395013  MEMB      95              0.0000000000
     12991        95  DOPC      H11B           19.0382044279       23.4497352022      -19.2597214967  MEMB      95              0.0000000000
     12992        95  DOPC      P              20.8059989530       24.7896429630      -20.8520086506  MEMB      95              0.0000000000
     12993        95  DOPC      O13            19.5206743796       24.9360600017      -21.5827756800  MEMB      95              0.0000000000
     12994        95  DOPC      O14            22.0508495887       25.0978807551      -21.5757722385  MEMB      95              0.0000000000
     12995        95  DOPC      O12            20.8958253471       23.3224732120      -20.2781979514  MEMB      95              0.0000000000
     12996        95  DOPC      O11            20.7266633563       25.6529295142      -19.5493436888  MEMB      95              0.0000000000
     12997        95  DOPC      C1             20.0253334986       26.8903746455      -19.5920938950  MEMB      95              0.0000000000
     12998        95  DOPC      HA             19.1910412281       26.9363037221      -20.3388674976  MEMB      95              0.0000000000
     12999        95  DOPC      HB             20.7286352871       27.7180380291      -19.8420203350  MEMB      95              0.0000000000
     13000        95  DOPC      C2             19.4192340217       27.1163831378      -18.2065288766  MEMB      95              0.0000000000
     13001        95  DOPC      HS             18.9891598057       28.1512985320      -18.2034935663  MEMB      95              0.0000000000
     13002        95  DOPC      O21            20.3927064748       26.9136165935      -17.1655327814  MEMB      95              0.0000000000
     13003        95  DOPC      C21            21.1295194420       27.9793861579      -17.0121943135  MEMB      95              0.0000000000
     13004        95  DOPC      O22            21.0428103123       29.0206487787      -17.6474136368  MEMB      95              0.0000000000
     13005        95  DOPC      C22            22.1220151209       27.8198798720      -15.8658753738  MEMB      95              0.0000000000
     13006        95  DOPC      H2R            22.1475167732       28.8252480804      -15.3881337705  MEMB      95              0.0000000000
     13007        95  DOPC      H2S            23.1213214476       27.6129864086      -16.2985799263  MEMB      95              0.0000000000
     13008        95  DOPC      C3             18.2597737703       26.1827690548      -17.8712596217  MEMB      95              0.0000000000
     13009        95  DOPC      HX             18.6617933341       25.2131683891      -17.5018233862  MEMB      95              0.0000000000
     13010        95  DOPC      HY             17.6281283697       25.9643671481      -18.7556731378  MEMB      95              0.0000000000
     13011        95  DOPC      O31            17.5523097355       26.9165094730      -16.8634373893  MEMB      95              0.0000000000
     13012        95  DOPC      C31            16.8176932696       26.2090943558      -16.0569203940  MEMB      95              0.0000000000
     13013        95  DOPC      O32            16.2953731451       25.1450140279      -16.3503345178  MEMB      95              0.0000000000
     13014        95  DOPC      C32            16.7285396503       26.8902515518      -14.7147678888  MEMB      95              0.0000000000
     13015        95  DOPC      H2X            17.3426826751       27.8089036124      -14.7012187148  MEMB      95              0.0000000000
     13016        95  DOPC      H2Y            15.6699255527       27.1310746600      -14.4898239554  MEMB      95              0.0000000000
     13017        95  DOPC      C23            21.8025745014       26.7809291385      -14.7585402516  MEMB      95              0.0000000000
     13018        95  DOPC      H3R            21.9577043968       25.7587510184      -15.1569207414  MEMB      95              0.0000000000
     13019        95  DOPC      H3S            20.7407567048       26.8592438229      -14.4332983569  MEMB      95              0.0000000000
     13020        95  DOPC      C24            22.7162637168       27.0084975805      -13.5420090747  MEMB      95              0.0000000000
     13021        95  DOPC      H4R            22.3035650576       27.8320924512      -12.9165208546  MEMB      95              0.0000000000
     13022        95  DOPC      H4S            23.7129862412       27.3479309402      -13.9081617174  MEMB      95              0.0000000000
     13023        95  DOPC      C25            22.9591970440       25.7736905666      -12.6632014078  MEMB      95              0.0000000000
     13024        95  DOPC      H5R            23.3113077268       24.9299903209      -13.2971754900  MEMB      95              0.0000000000
     13025        95  DOPC      H5S            22.0082780792       25.4673390093      -12.1769128905  MEMB      95              0.0000000000
     13026        95  DOPC      C26            24.0317859427       26.0502650449      -11.5911433456  MEMB      95              0.0000000000
     13027        95  DOPC      H6R            23.7054137747       26.8905108893      -10.9440423502  MEMB      95              0.0000000000
     13028        95  DOPC      H6S            24.9522249882       26.3893026907      -12.1195736591  MEMB      95              0.0000000000
     13029        95  DOPC      C27            24.3987797970       24.8291636509      -10.7239861168  MEMB      95              0.0000000000
     13030        95  DOPC      H7R            25.4993692833       24.8653247579      -10.5498949964  MEMB      95              0.0000000000
     13031        95  DOPC      H7S            24.1872176152       23.8972721315      -11.2888037369  MEMB      95              0.0000000000
     13032        95  DOPC      C28            23.7279088771       24.7915626046       -9.3352911896  MEMB      95              0.0000000000
     13033        95  DOPC      H8R            24.0749741111       25.6819244534       -8.7624933710  MEMB      95              0.0000000000
     13034        95  DOPC      H8S            24.1070056823       23.9027555363       -8.7830000640  MEMB      95              0.0000000000
     13035        95  DOPC      C29            22.2245589329       24.7324275562       -9.4316294818  MEMB      95              0.0000000000
     13036        95  DOPC      H9R            21.8065944750       23.7652660020       -9.7490042339  MEMB      95              0.0000000000
     13037        95  DOPC      C210           21.3852694427       25.7425070916       -9.1488105862  MEMB      95              0.0000000000
     13038        95  DOPC      H10R           20.3015969975       25.5754196460       -9.2354604020  MEMB      95              0.0000000000
     13039        95  DOPC      C211           21.7821362744       27.1207975112       -8.6799875175  MEMB      95              0.0000000000
     13040        95  DOPC      H11R           20.9797123705       27.8456569629       -8.9322136723  MEMB      95              0.0000000000
     13041        95  DOPC      H11S           22.7002140951       27.4781547901       -9.1935359824  MEMB      95              0.0000000000
     13042        95  DOPC      C212           22.0515180395       27.1462341753       -7.1603245816  MEMB      95              0.0000000000
     13043        95  DOPC      H12R           22.3413865909       28.1716066619       -6.8466814965  MEMB      95              0.0000000000
     13044        95  DOPC      H12S           22.9060548674       26.4715515071       -6.9303353737  MEMB      95              0.0000000000
     13045        95  DOPC      C213           20.8425883691       26.6835173197       -6.3413300082  MEMB      95              0.0000000000
     13046        95  DOPC      H13R           20.6010860981       25.6720392270       -6.7102967284  MEMB      95              0.0000000000
     13047        95  DOPC      H13S           19.9539082586       27.3119165455       -6.5587972555  MEMB      95              0.0000000000
     13048        95  DOPC      C214           21.0747836289       26.6299290687       -4.8222633411  MEMB      95              0.0000000000
     13049        95  DOPC      H14R           22.1581515853       26.5254506160       -4.6002001658  MEMB      95              0.0000000000
     13050        95  DOPC      H14S           20.5807112230       25.7078787748       -4.4460975023  MEMB      95              0.0000000000
     13051        95  DOPC      C215           20.4714879854       27.8800677265       -4.1561590912  MEMB      95              0.0000000000
     13052        95  DOPC      H15R           19.4867775890       28.0761375960       -4.6388078967  MEMB      95              0.0000000000
     13053        95  DOPC      H15S           21.1311918823       28.7445330131       -4.3879326721  MEMB      95              0.0000000000
     13054        95  DOPC      C216           20.2187249833       27.8318623446       -2.6401617374  MEMB      95              0.0000000000
     13055        95  DOPC      H16R           19.7894989057       28.8193093367       -2.3398457004  MEMB      95              0.0000000000
     13056        95  DOPC      H16S           21.1787047174       27.7133356929       -2.0954216963  MEMB      95              0.0000000000
     13057        95  DOPC      C217           19.2232327829       26.7505786096       -2.2026131933  MEMB      95              0.0000000000
     13058        95  DOPC      H17R           19.4348337365       26.4600918967       -1.1520934396  MEMB      95              0.0000000000
     13059        95  DOPC      H17S           19.3568419194       25.8287941190       -2.8035836582  MEMB      95              0.0000000000
     13060        95  DOPC      C218           17.7772252936       27.2311494014       -2.2969346339  MEMB      95              0.0000000000
     13061        95  DOPC      H18R           17.6437538336       27.7802906301       -3.2489641950  MEMB      95              0.0000000000
     13062        95  DOPC      H18S           17.5236255861       27.9249995038       -1.4691705303  MEMB      95              0.0000000000
     13063        95  DOPC      H18T           17.0671107052       26.3755740628       -2.2659967150  MEMB      95              0.0000000000
     13064        95  DOPC      C33            17.3122740132       25.9551061927      -13.6689667957  MEMB      95              0.0000000000
     13065        95  DOPC      H3X            18.2829668356       25.5186193514      -14.0074484646  MEMB      95              0.0000000000
     13066        95  DOPC      H3Y            16.5609340874       25.1463905243      -13.5984203206  MEMB      95              0.0000000000
     13067        95  DOPC      C34            17.5228381541       26.6549859674      -12.3216554205  MEMB      95              0.0000000000
     13068        95  DOPC      H4X            16.5540845457       26.7218372170      -11.7804597857  MEMB      95              0.0000000000
     13069        95  DOPC      H4Y            17.8688402075       27.6976785227      -12.5113914073  MEMB      95              0.0000000000
     13070        95  DOPC      C35            18.5800707906       25.9956894510      -11.4279972637  MEMB      95              0.0000000000
     13071        95  DOPC      H5X            18.5158762964       26.4131002714      -10.4017972844  MEMB      95              0.0000000000
     13072        95  DOPC      H5Y            19.5928708996       26.2696239927      -11.8147939682  MEMB      95              0.0000000000
     13073        95  DOPC      C36            18.5262002548       24.4667696503      -11.3450213806  MEMB      95              0.0000000000
     13074        95  DOPC      H6X            19.1536871809       24.0734295167      -12.1829545375  MEMB      95              0.0000000000
     13075        95  DOPC      H6Y            19.0315814084       24.1455312573      -10.4059434885  MEMB      95              0.0000000000
     13076        95  DOPC      C37            17.1596951983       23.7603474652      -11.4536647024  MEMB      95              0.0000000000
     13077        95  DOPC      H7X            16.7863862871       23.7073467524      -12.4850141826  MEMB      95              0.0000000000
     13078        95  DOPC      H7Y            17.4139162002       22.7150687600      -11.3566650912  MEMB      95              0.0000000000
     13079        95  DOPC      C38            15.9526712963       24.1025059125      -10.5339145000  MEMB      95              0.0000000000
     13080        95  DOPC      H8X            15.3325562072       23.1821799756      -10.5316453221  MEMB      95              0.0000000000
     13081        95  DOPC      H8Y            15.3735225827       24.8753154583      -11.0923258882  MEMB      95              0.0000000000
     13082        95  DOPC      C39            16.1079573756       24.6063298720       -9.1222379791  MEMB      95              0.0000000000
     13083        95  DOPC      H9X            16.3942902148       25.6718353820       -9.1098497389  MEMB      95              0.0000000000
     13084        95  DOPC      C310           15.8383390460       24.0624399250       -7.9098357747  MEMB      95              0.0000000000
     13085        95  DOPC      H10X           16.2509473301       24.6314046692       -7.0951520519  MEMB      95              0.0000000000
     13086        95  DOPC      C311           15.2900865732       22.7712190684       -7.3228963096  MEMB      95              0.0000000000
     13087        95  DOPC      H11X           15.8280770248       21.9275235707       -7.7315641582  MEMB      95              0.0000000000
     13088        95  DOPC      H11Y           14.2295201906       22.6394376489       -7.6317091985  MEMB      95              0.0000000000
     13089        95  DOPC      C312           15.3360091830       22.6921386858       -5.7359685781  MEMB      95              0.0000000000
     13090        95  DOPC      H12X           14.2806225313       22.7133288120       -5.4405580774  MEMB      95              0.0000000000
     13091        95  DOPC      H12Y           15.8161060914       23.5893265390       -5.3908536161  MEMB      95              0.0000000000
     13092        95  DOPC      C313           16.0461440619       21.6492720255       -4.7988700620  MEMB      95              0.0000000000
     13093        95  DOPC      H13X           15.2513783701       20.9645830005       -4.4515651816  MEMB      95              0.0000000000
     13094        95  DOPC      H13Y           16.7840498917       21.0267991486       -5.3379882556  MEMB      95              0.0000000000
     13095        95  DOPC      C314           16.7805113273       22.1504835201       -3.5309156287  MEMB      95              0.0000000000
     13096        95  DOPC      H14X           17.8503335257       21.8656386767       -3.6573817675  MEMB      95              0.0000000000
     13097        95  DOPC      H14Y           16.7137108917       23.2480057528       -3.4637701704  MEMB      95              0.0000000000
     13098        95  DOPC      C315           16.3282328160       21.5921737002       -2.1700507508  MEMB      95              0.0000000000
     13099        95  DOPC      H15X           15.4220344548       20.9624489715       -2.2846906576  MEMB      95              0.0000000000
     13100        95  DOPC      H15Y           16.0443481689       22.4555370648       -1.5241496244  MEMB      95              0.0000000000
     13101        95  DOPC      C316           17.4453915593       20.8375650912       -1.4197589832  MEMB      95              0.0000000000
     13102        95  DOPC      H16X           17.0067417667       20.3975635461       -0.4989080118  MEMB      95              0.0000000000
     13103        95  DOPC      H16Y           17.8136384975       19.9953760707       -2.0391315434  MEMB      95              0.0000000000
     13104        95  DOPC      C317           18.5822941651       21.7759058661       -0.9684658094  MEMB      95              0.0000000000
     13105        95  DOPC      H17X           19.1338381828       22.1916052818       -1.8424541902  MEMB      95              0.0000000000
     13106        95  DOPC      H17Y           18.0771718333       22.6184006702       -0.4549731128  MEMB      95              0.0000000000
     13107        95  DOPC      C318           19.5840452565       21.1818236103        0.0234784995  MEMB      95              0.0000000000
     13108        95  DOPC      H18X           20.1412797619       20.3442346008       -0.4402294015  MEMB      95              0.0000000000
     13109        95  DOPC      H18Y           20.3308382463       21.9395046158        0.3354463282  MEMB      95              0.0000000000
     13110        95  DOPC      H18Z           19.0671859095       20.8101259597        0.9346431847  MEMB      95              0.0000000000
     13111        96  DOPC      N              14.9258059691      -31.1216335094      -19.1097283871  MEMB      96              0.0000000000
     13112        96  DOPC      C12            16.4170376559      -30.9486237944      -19.3688270790  MEMB      96              0.0000000000
     13113        96  DOPC      H12A           16.8097986542      -31.8108927876      -19.8942583874  MEMB      96              0.0000000000
     13114        96  DOPC      H12B           16.8943299360      -30.8901278556      -18.3887934443  MEMB      96              0.0000000000
     13115        96  DOPC      C13            14.6907006840      -32.4043061358      -18.4289703659  MEMB      96              0.0000000000
     13116        96  DOPC      H13A           15.1494256849      -32.3972002022      -17.4473783496  MEMB      96              0.0000000000
     13117        96  DOPC      H13B           13.6418742019      -32.6077909902      -18.3169942591  MEMB      96              0.0000000000
     13118        96  DOPC      H13C           15.1686164536      -33.2052591919      -18.9819181873  MEMB      96              0.0000000000
     13119        96  DOPC      C14            14.1897508566      -31.0901144566      -20.4032391597  MEMB      96              0.0000000000
     13120        96  DOPC      H14A           14.3649344871      -30.1184059189      -20.8749985913  MEMB      96              0.0000000000
     13121        96  DOPC      H14B           14.6060136814      -31.8150188632      -21.1065300587  MEMB      96              0.0000000000
     13122        96  DOPC      H14C           13.1370293338      -31.2745861296      -20.3133226361  MEMB      96              0.0000000000
     13123        96  DOPC      C15            14.5271248303      -30.0026672633      -18.1980352969  MEMB      96              0.0000000000
     13124        96  DOPC      H15A           15.2239497247      -29.9345419954      -17.3559480553  MEMB      96              0.0000000000
     13125        96  DOPC      H15B           13.5222959337      -30.0668487883      -17.8367892634  MEMB      96              0.0000000000
     13126        96  DOPC      H15C           14.6994151887      -29.0578880988      -18.7255333427  MEMB      96              0.0000000000
     13127        96  DOPC      C11            16.9574408730      -29.7145040424      -20.1080679148  MEMB      96              0.0000000000
     13128        96  DOPC      H11A           18.0726796143      -29.7943656648      -20.0223525862  MEMB      96              0.0000000000
     13129        96  DOPC      H11B           16.7323188436      -29.7492465785      -21.1930205837  MEMB      96              0.0000000000
     13130        96  DOPC      P              17.3399927289      -27.2142135277      -19.6555828854  MEMB      96              0.0000000000
     13131        96  DOPC      O13            16.4612130705      -26.1070536021      -20.0865734455  MEMB      96              0.0000000000
     13132        96  DOPC      O14            18.5119138065      -27.4908801582      -20.5146256086  MEMB      96              0.0000000000
     13133        96  DOPC      O12            16.4620326139      -28.5186343590      -19.5080624230  MEMB      96              0.0000000000
     13134        96  DOPC      O11            17.8395795515      -26.9504476252      -18.1939128097  MEMB      96              0.0000000000
     13135        96  DOPC      C1             18.6630989846      -27.9565589198      -17.5959401439  MEMB      96              0.0000000000
     13136        96  DOPC      HA             19.6551152423      -28.0018392128      -18.0998116598  MEMB      96              0.0000000000
     13137        96  DOPC      HB             18.2199414478      -28.9706331693      -17.6915310278  MEMB      96              0.0000000000
     13138        96  DOPC      C2             18.8799297237      -27.6030489947      -16.1047158699  MEMB      96              0.0000000000
     13139        96  DOPC      HS             19.4930585530      -28.3995033346      -15.6266982186  MEMB      96              0.0000000000
     13140        96  DOPC      O21            17.6402149667      -27.4426285331      -15.3871332610  MEMB      96              0.0000000000
     13141        96  DOPC      C21            16.6839821671      -28.3134882881      -15.6267464460  MEMB      96              0.0000000000
     13142        96  DOPC      O22            16.8022371146      -29.4655596655      -15.9970126974  MEMB      96              0.0000000000
     13143        96  DOPC      C22            15.3407045860      -27.6498034293      -15.4467059532  MEMB      96              0.0000000000
     13144        96  DOPC      H2R            14.8545010577      -27.6840098932      -16.4419910950  MEMB      96              0.0000000000
     13145        96  DOPC      H2S            15.5226797006      -26.5959062927      -15.1902088685  MEMB      96              0.0000000000
     13146        96  DOPC      C3             19.6802021071      -26.2626743249      -16.0555308130  MEMB      96              0.0000000000
     13147        96  DOPC      HX             19.1456515297      -25.5686644793      -16.7426485482  MEMB      96              0.0000000000
     13148        96  DOPC      HY             20.7038204526      -26.4101399263      -16.4612799179  MEMB      96              0.0000000000
     13149        96  DOPC      O31            19.7031751922      -25.6312048379      -14.7682127568  MEMB      96              0.0000000000
     13150        96  DOPC      C31            20.3063013617      -26.2987558747      -13.8025003189  MEMB      96              0.0000000000
     13151        96  DOPC      O32            21.0430556772      -27.2584729211      -13.9374296307  MEMB      96              0.0000000000
     13152        96  DOPC      C32            19.8552269772      -25.6800095619      -12.4915594341  MEMB      96              0.0000000000
     13153        96  DOPC      H2X            20.1085936408      -24.6001080246      -12.5308278433  MEMB      96              0.0000000000
     13154        96  DOPC      H2Y            18.7466033682      -25.7832262277      -12.4687972738  MEMB      96              0.0000000000
     13155        96  DOPC      C23            14.4783481693      -28.3686513807      -14.3948334674  MEMB      96              0.0000000000
     13156        96  DOPC      H3R            14.4042855291      -29.4543073516      -14.6307984530  MEMB      96              0.0000000000
     13157        96  DOPC      H3S            13.4501247033      -27.9460324254      -14.4367916506  MEMB      96              0.0000000000
     13158        96  DOPC      C24            15.0011573423      -28.2026497258      -12.9618002058  MEMB      96              0.0000000000
     13159        96  DOPC      H4R            16.0137209180      -28.6504472252      -12.8553890366  MEMB      96              0.0000000000
     13160        96  DOPC      H4S            14.2927934501      -28.7673322076      -12.3121694938  MEMB      96              0.0000000000
     13161        96  DOPC      C25            15.0382237467      -26.7517051353      -12.4595571473  MEMB      96              0.0000000000
     13162        96  DOPC      H5R            13.9932768349      -26.3792955595      -12.4392816644  MEMB      96              0.0000000000
     13163        96  DOPC      H5S            15.6261417281      -26.1094472164      -13.1508268978  MEMB      96              0.0000000000
     13164        96  DOPC      C26            15.6053774005      -26.5437874101      -11.0499242685  MEMB      96              0.0000000000
     13165        96  DOPC      H6R            15.3430811453      -25.5006771017      -10.7491902934  MEMB      96              0.0000000000
     13166        96  DOPC      H6S            16.7133253515      -26.6165007571      -11.0754008060  MEMB      96              0.0000000000
     13167        96  DOPC      C27            15.0458077372      -27.4888117325       -9.9772973676  MEMB      96              0.0000000000
     13168        96  DOPC      H7R            13.9503902104      -27.5782175936      -10.1174281672  MEMB      96              0.0000000000
     13169        96  DOPC      H7S            15.2091131837      -26.9913343802       -8.9960639907  MEMB      96              0.0000000000
     13170        96  DOPC      C28            15.7293216894      -28.8747305248       -9.9551856496  MEMB      96              0.0000000000
     13171        96  DOPC      H8R            16.7674062444      -28.7285043018      -10.3257688496  MEMB      96              0.0000000000
     13172        96  DOPC      H8S            15.2405226153      -29.5384314567      -10.6947254852  MEMB      96              0.0000000000
     13173        96  DOPC      C29            15.7149958442      -29.5699011962       -8.6169767567  MEMB      96              0.0000000000
     13174        96  DOPC      H9R            14.8144360652      -29.4152941054       -8.0096298439  MEMB      96              0.0000000000
     13175        96  DOPC      C210           16.7198194610      -30.2826340026       -8.0926536977  MEMB      96              0.0000000000
     13176        96  DOPC      H10R           16.5998328948      -30.7410280421       -7.0993986463  MEMB      96              0.0000000000
     13177        96  DOPC      C211           18.0371356233      -30.4915459886       -8.7846853078  MEMB      96              0.0000000000
     13178        96  DOPC      H11R           17.8628695874      -30.7010060084       -9.8633797200  MEMB      96              0.0000000000
     13179        96  DOPC      H11S           18.5670964757      -31.3717973783       -8.3624759403  MEMB      96              0.0000000000
     13180        96  DOPC      C212           18.9279557368      -29.2369068309       -8.6727785819  MEMB      96              0.0000000000
     13181        96  DOPC      H12R           18.3069465999      -28.3279942198       -8.8377559075  MEMB      96              0.0000000000
     13182        96  DOPC      H12S           19.7002778295      -29.2539840732       -9.4711209111  MEMB      96              0.0000000000
     13183        96  DOPC      C213           19.5991712677      -29.1228619465       -7.3004182103  MEMB      96              0.0000000000
     13184        96  DOPC      H13R           20.4673885240      -29.8001655997       -7.2377014930  MEMB      96              0.0000000000
     13185        96  DOPC      H13S           18.8631840125      -29.4931087175       -6.5533973428  MEMB      96              0.0000000000
     13186        96  DOPC      C214           20.0222338359      -27.7040417790       -6.8869578645  MEMB      96              0.0000000000
     13187        96  DOPC      H14R           19.2487580825      -26.9840460170       -7.2362681255  MEMB      96              0.0000000000
     13188        96  DOPC      H14S           20.9940371760      -27.4378212464       -7.3592601356  MEMB      96              0.0000000000
     13189        96  DOPC      C215           20.0992327075      -27.5892974272       -5.3634276834  MEMB      96              0.0000000000
     13190        96  DOPC      H15R           21.0598429482      -28.0308919206       -5.0193663695  MEMB      96              0.0000000000
     13191        96  DOPC      H15S           19.2925094031      -28.2267556219       -4.9311911750  MEMB      96              0.0000000000
     13192        96  DOPC      C216           19.8858861578      -26.1775441771       -4.7762931271  MEMB      96              0.0000000000
     13193        96  DOPC      H16R           18.9638696815      -25.7092460134       -5.1569239650  MEMB      96              0.0000000000
     13194        96  DOPC      H16S           20.7517610044      -25.5329664009       -5.0441106058  MEMB      96              0.0000000000
     13195        96  DOPC      C217           19.8006643851      -26.3237436852       -3.2577754232  MEMB      96              0.0000000000
     13196        96  DOPC      H17R           20.7170141887      -26.9136092807       -3.1539780845  MEMB      96              0.0000000000
     13197        96  DOPC      H17S           18.9972140263      -27.0093374698       -2.9151602614  MEMB      96              0.0000000000
     13198        96  DOPC      C218           19.9015675757      -25.1126516836       -2.3207262440  MEMB      96              0.0000000000
     13199        96  DOPC      H18R           18.9304997633      -24.6254533496       -2.1002267452  MEMB      96              0.0000000000
     13200        96  DOPC      H18S           20.6415534642      -24.3586266694       -2.6515231354  MEMB      96              0.0000000000
     13201        96  DOPC      H18T           20.2623961257      -25.5092213919       -1.3533934701  MEMB      96              0.0000000000
     13202        96  DOPC      C33            20.4356523172      -26.3128961810      -11.2074990726  MEMB      96              0.0000000000
     13203        96  DOPC      H3X            21.4567534858      -25.9104025048      -11.0218839210  MEMB      96              0.0000000000
     13204        96  DOPC      H3Y            20.5245908773      -27.4194297163      -11.3084029874  MEMB      96              0.0000000000
     13205        96  DOPC      C34            19.5334606807      -26.0197692735       -9.9964179604  MEMB      96              0.0000000000
     13206        96  DOPC      H4X            20.0561738618      -26.3768536887       -9.0872857205  MEMB      96              0.0000000000
     13207        96  DOPC      H4Y            18.5950615410      -26.6044174210      -10.1008847011  MEMB      96              0.0000000000
     13208        96  DOPC      C35            19.1887956255      -24.5319135423       -9.8267835018  MEMB      96              0.0000000000
     13209        96  DOPC      H5X            19.1691788830      -24.0154817355      -10.8076767320  MEMB      96              0.0000000000
     13210        96  DOPC      H5Y            20.0080702588      -24.0806961517       -9.2250054955  MEMB      96              0.0000000000
     13211        96  DOPC      C36            17.8163766588      -24.2021388805       -9.2054898956  MEMB      96              0.0000000000
     13212        96  DOPC      H6X            17.0017572782      -24.6611488472       -9.7889322378  MEMB      96              0.0000000000
     13213        96  DOPC      H6Y            17.8020121038      -24.5887350264       -8.1676439303  MEMB      96              0.0000000000
     13214        96  DOPC      C37            17.5754560200      -22.6871434926       -9.1535438902  MEMB      96              0.0000000000
     13215        96  DOPC      H7X            18.3421106647      -22.3743776005       -8.4404400617  MEMB      96              0.0000000000
     13216        96  DOPC      H7Y            17.8229386176      -22.2460204537      -10.1361421896  MEMB      96              0.0000000000
     13217        96  DOPC      C38            16.1931060627      -22.1436064456       -8.7560746414  MEMB      96              0.0000000000
     13218        96  DOPC      H8X            15.4321280042      -22.7696815414       -9.2694155743  MEMB      96              0.0000000000
     13219        96  DOPC      H8Y            16.0657747522      -21.1193406848       -9.1764044231  MEMB      96              0.0000000000
     13220        96  DOPC      C39            15.9738542816      -22.0696587121       -7.2676271153  MEMB      96              0.0000000000
     13221        96  DOPC      H9X            16.2071284887      -21.1054721052       -6.7777063722  MEMB      96              0.0000000000
     13222        96  DOPC      C310           15.3550108493      -23.0276256432       -6.5714710888  MEMB      96              0.0000000000
     13223        96  DOPC      H10X           15.1283822297      -22.8749878533       -5.5017985917  MEMB      96              0.0000000000
     13224        96  DOPC      C311           14.8053692114      -24.2801894919       -7.1763593866  MEMB      96              0.0000000000
     13225        96  DOPC      H11X           15.0781956867      -24.4395168530       -8.2396719460  MEMB      96              0.0000000000
     13226        96  DOPC      H11Y           13.7144100969      -24.1490287191       -7.1553620763  MEMB      96              0.0000000000
     13227        96  DOPC      C312           15.1265823882      -25.5418033827       -6.3883024314  MEMB      96              0.0000000000
     13228        96  DOPC      H12X           14.4348453108      -26.3395257666       -6.7361423008  MEMB      96              0.0000000000
     13229        96  DOPC      H12Y           14.9488035402      -25.3432616192       -5.3119758442  MEMB      96              0.0000000000
     13230        96  DOPC      C313           16.5158997160      -26.1440978694       -6.5688764335  MEMB      96              0.0000000000
     13231        96  DOPC      H13X           16.7346315264      -26.2867372199       -7.6514536944  MEMB      96              0.0000000000
     13232        96  DOPC      H13Y           17.2818788174      -25.4598503513       -6.1564260887  MEMB      96              0.0000000000
     13233        96  DOPC      C314           16.5473243409      -27.5295350036       -5.9143580058  MEMB      96              0.0000000000
     13234        96  DOPC      H14X           15.7314696148      -28.1316206030       -6.3686329841  MEMB      96              0.0000000000
     13235        96  DOPC      H14Y           17.4953536879      -28.0357761659       -6.1548974559  MEMB      96              0.0000000000
     13236        96  DOPC      C315           16.3384121835      -27.5252886305       -4.3993666312  MEMB      96              0.0000000000
     13237        96  DOPC      H15X           15.5001317296      -26.8532386712       -4.1353484191  MEMB      96              0.0000000000
     13238        96  DOPC      H15Y           17.2470331594      -27.1355493573       -3.9014822297  MEMB      96              0.0000000000
     13239        96  DOPC      C316           15.9996460179      -28.9148107894       -3.8562291485  MEMB      96              0.0000000000
     13240        96  DOPC      H16X           15.0845088719      -29.2882950965       -4.3676596720  MEMB      96              0.0000000000
     13241        96  DOPC      H16Y           16.8356542307      -29.5973182907       -4.1193716860  MEMB      96              0.0000000000
     13242        96  DOPC      C317           15.7807386164      -28.9058822881       -2.3367879500  MEMB      96              0.0000000000
     13243        96  DOPC      H17X           15.5409487968      -29.9376930555       -1.9928571699  MEMB      96              0.0000000000
     13244        96  DOPC      H17Y           16.7465915315      -28.6061601369       -1.8741491690  MEMB      96              0.0000000000
     13245        96  DOPC      C318           14.6932922726      -27.9486560758       -1.8386576583  MEMB      96              0.0000000000
     13246        96  DOPC      H18X           13.7359298556      -28.1366052587       -2.3693322800  MEMB      96              0.0000000000
     13247        96  DOPC      H18Y           14.5185658355      -28.0804564169       -0.7494540764  MEMB      96              0.0000000000
     13248        96  DOPC      H18Z           14.9889806805      -26.8915901431       -2.0101129004  MEMB      96              0.0000000000
     13249        97  DOPC      N             -27.6706301863      -19.1634606997      -20.3526194690  MEMB      97              0.0000000000
     13250        97  DOPC      C12           -27.4799931516      -19.4262553999      -18.8607278038  MEMB      97              0.0000000000
     13251        97  DOPC      H12A          -27.9607275123      -20.3898217752      -18.6410077137  MEMB      97              0.0000000000
     13252        97  DOPC      H12B          -28.0133762805      -18.7245326297      -18.2383259219  MEMB      97              0.0000000000
     13253        97  DOPC      C13           -29.0782049275      -18.7844271676      -20.6872973866  MEMB      97              0.0000000000
     13254        97  DOPC      H13A          -29.2342163340      -18.7204971761      -21.7675300498  MEMB      97              0.0000000000
     13255        97  DOPC      H13B          -29.8144427362      -19.4733825775      -20.2764738511  MEMB      97              0.0000000000
     13256        97  DOPC      H13C          -29.3284655081      -17.7911807517      -20.3488052845  MEMB      97              0.0000000000
     13257        97  DOPC      C14           -27.3430146821      -20.4385860191      -21.0383721168  MEMB      97              0.0000000000
     13258        97  DOPC      H14A          -26.3592600995      -20.7809720957      -20.7165791864  MEMB      97              0.0000000000
     13259        97  DOPC      H14B          -27.9920318059      -21.2561637687      -20.7150520631  MEMB      97              0.0000000000
     13260        97  DOPC      H14C          -27.3376707980      -20.3952114066      -22.1086601391  MEMB      97              0.0000000000
     13261        97  DOPC      C15           -26.7560182386      -18.1071504653      -20.8864788300  MEMB      97              0.0000000000
     13262        97  DOPC      H15A          -27.0387424840      -17.9062085359      -21.9223875792  MEMB      97              0.0000000000
     13263        97  DOPC      H15B          -25.7346196384      -18.4721634338      -20.8608033475  MEMB      97              0.0000000000
     13264        97  DOPC      H15C          -26.8455855846      -17.2025886177      -20.3103326761  MEMB      97              0.0000000000
     13265        97  DOPC      C11           -26.0288271061      -19.5584021318      -18.3258913167  MEMB      97              0.0000000000
     13266        97  DOPC      H11A          -25.4100950342      -18.7000285251      -18.6606264398  MEMB      97              0.0000000000
     13267        97  DOPC      H11B          -26.0525159767      -19.4980274771      -17.2115301502  MEMB      97              0.0000000000
     13268        97  DOPC      P             -26.0929458850      -22.1341524186      -18.2540021193  MEMB      97              0.0000000000
     13269        97  DOPC      O13           -25.1141851643      -23.2276524350      -18.4406431845  MEMB      97              0.0000000000
     13270        97  DOPC      O14           -27.4342738799      -22.2583555679      -18.8728146515  MEMB      97              0.0000000000
     13271        97  DOPC      O12           -25.4178012277      -20.7778889363      -18.7561058431  MEMB      97              0.0000000000
     13272        97  DOPC      O11           -26.2759930262      -21.8002369097      -16.7282514979  MEMB      97              0.0000000000
     13273        97  DOPC      C1            -25.5648783140      -22.5271593224      -15.7311667643  MEMB      97              0.0000000000
     13274        97  DOPC      HA            -24.5071140071      -22.1834403496      -15.6724704412  MEMB      97              0.0000000000
     13275        97  DOPC      HB            -25.5712887141      -23.6265892043      -15.9332665618  MEMB      97              0.0000000000
     13276        97  DOPC      C2            -26.2378902058      -22.2892315001      -14.3652234266  MEMB      97              0.0000000000
     13277        97  DOPC      HS            -27.2944375896      -22.6434553506      -14.4546267021  MEMB      97              0.0000000000
     13278        97  DOPC      O21           -26.1246683472      -20.8857378433      -14.0493935685  MEMB      97              0.0000000000
     13279        97  DOPC      C21           -27.2358923403      -20.1772579919      -14.1986123844  MEMB      97              0.0000000000
     13280        97  DOPC      O22           -28.3666302931      -20.6288843618      -14.2705496219  MEMB      97              0.0000000000
     13281        97  DOPC      C22           -26.8685760213      -18.6898754888      -14.2139935375  MEMB      97              0.0000000000
     13282        97  DOPC      H2R           -26.8237383317      -18.3884431031      -15.2809392297  MEMB      97              0.0000000000
     13283        97  DOPC      H2S           -25.8747442296      -18.5245524906      -13.7556995197  MEMB      97              0.0000000000
     13284        97  DOPC      C3            -25.5495513587      -23.1386593206      -13.2657889781  MEMB      97              0.0000000000
     13285        97  DOPC      HX            -24.5187406279      -22.7479524570      -13.1148422265  MEMB      97              0.0000000000
     13286        97  DOPC      HY            -25.4498479383      -24.1890650152      -13.6294064963  MEMB      97              0.0000000000
     13287        97  DOPC      O31           -26.2747628729      -23.0440826117      -12.0249113737  MEMB      97              0.0000000000
     13288        97  DOPC      C31           -27.2866781190      -23.8888758266      -11.9057094026  MEMB      97              0.0000000000
     13289        97  DOPC      O32           -27.5046682576      -24.8571705955      -12.6072889888  MEMB      97              0.0000000000
     13290        97  DOPC      C32           -28.1514905003      -23.4586771365      -10.7271859361  MEMB      97              0.0000000000
     13291        97  DOPC      H2X           -28.3381306674      -22.3738063706      -10.8347398379  MEMB      97              0.0000000000
     13292        97  DOPC      H2Y           -29.1159634424      -23.9900844651      -10.8472221116  MEMB      97              0.0000000000
     13293        97  DOPC      C23           -27.9384352079      -17.8330709850      -13.5083400142  MEMB      97              0.0000000000
     13294        97  DOPC      H3R           -28.9186276453      -18.1057831090      -13.9400156997  MEMB      97              0.0000000000
     13295        97  DOPC      H3S           -27.7610980373      -16.7630410968      -13.7559020462  MEMB      97              0.0000000000
     13296        97  DOPC      C24           -27.9839757312      -17.9748575424      -11.9781280115  MEMB      97              0.0000000000
     13297        97  DOPC      H4R           -28.5327857446      -17.0897850702      -11.5765955263  MEMB      97              0.0000000000
     13298        97  DOPC      H4S           -26.9548467038      -17.9315677579      -11.5584438081  MEMB      97              0.0000000000
     13299        97  DOPC      C25           -28.7204916673      -19.2472797074      -11.4995491070  MEMB      97              0.0000000000
     13300        97  DOPC      H5R           -28.0448718321      -20.1215171201      -11.6154942553  MEMB      97              0.0000000000
     13301        97  DOPC      H5S           -29.6031660952      -19.4091208398      -12.1583950503  MEMB      97              0.0000000000
     13302        97  DOPC      C26           -29.2086427847      -19.1311417416      -10.0509874315  MEMB      97              0.0000000000
     13303        97  DOPC      H6R           -29.7724266792      -18.1830259431       -9.9626039496  MEMB      97              0.0000000000
     13304        97  DOPC      H6S           -28.3413862131      -19.0056663478       -9.3943609625  MEMB      97              0.0000000000
     13305        97  DOPC      C27           -30.0724953427      -20.2759907892       -9.4767274628  MEMB      97              0.0000000000
     13306        97  DOPC      H7R           -29.4528215506      -21.1703096888       -9.3021587156  MEMB      97              0.0000000000
     13307        97  DOPC      H7S           -30.8658653592      -20.5593188100      -10.2009193689  MEMB      97              0.0000000000
     13308        97  DOPC      C28           -30.7049258315      -19.7773521766       -8.1530347687  MEMB      97              0.0000000000
     13309        97  DOPC      H8R           -31.4375518615      -19.0261676659       -8.4954447911  MEMB      97              0.0000000000
     13310        97  DOPC      H8S           -29.9246675474      -19.2214324980       -7.5890029327  MEMB      97              0.0000000000
     13311        97  DOPC      C29           -31.5101604833      -20.6210604134       -7.2069959479  MEMB      97              0.0000000000
     13312        97  DOPC      H9R           -32.5222641653      -20.8437829460       -7.5654057116  MEMB      97              0.0000000000
     13313        97  DOPC      C210          -31.1380910170      -21.1702622649       -6.0421678669  MEMB      97              0.0000000000
     13314        97  DOPC      H10R          -31.9019675710      -21.7110161487       -5.4600873423  MEMB      97              0.0000000000
     13315        97  DOPC      C211          -29.7965820549      -21.1035649666       -5.3773629766  MEMB      97              0.0000000000
     13316        97  DOPC      H11R          -28.9757443764      -21.0269730121       -6.1188682525  MEMB      97              0.0000000000
     13317        97  DOPC      H11S          -29.6392924263      -22.0781393313       -4.8701852237  MEMB      97              0.0000000000
     13318        97  DOPC      C212          -29.6294006587      -20.0168550900       -4.3132061145  MEMB      97              0.0000000000
     13319        97  DOPC      H12R          -30.5375229768      -19.9675382311       -3.6716910594  MEMB      97              0.0000000000
     13320        97  DOPC      H12S          -29.4817911189      -19.0267039841       -4.8007018458  MEMB      97              0.0000000000
     13321        97  DOPC      C213          -28.4294622702      -20.3370047113       -3.4206767635  MEMB      97              0.0000000000
     13322        97  DOPC      H13R          -27.5166215957      -20.2305592988       -4.0393301053  MEMB      97              0.0000000000
     13323        97  DOPC      H13S          -28.4997438490      -21.4037307394       -3.1003445184  MEMB      97              0.0000000000
     13324        97  DOPC      C214          -28.3405086010      -19.4263220207       -2.1901137879  MEMB      97              0.0000000000
     13325        97  DOPC      H14R          -29.3547510060      -19.0342006635       -1.9584947513  MEMB      97              0.0000000000
     13326        97  DOPC      H14S          -27.6731722350      -18.5671343832       -2.4242348094  MEMB      97              0.0000000000
     13327        97  DOPC      C215          -27.8329597497      -20.1449649920       -0.9389144944  MEMB      97              0.0000000000
     13328        97  DOPC      H15R          -28.5365570888      -20.9717760302       -0.6769546541  MEMB      97              0.0000000000
     13329        97  DOPC      H15S          -27.7997337057      -19.4588135243       -0.0709168632  MEMB      97              0.0000000000
     13330        97  DOPC      C216          -26.4615992904      -20.7749697262       -1.1482762501  MEMB      97              0.0000000000
     13331        97  DOPC      H16R          -25.8097104247      -20.1727800335       -1.8172896528  MEMB      97              0.0000000000
     13332        97  DOPC      H16S          -26.7582636447      -21.7239659284       -1.6406506584  MEMB      97              0.0000000000
     13333        97  DOPC      C217          -25.7577125676      -21.0547338385        0.1788005803  MEMB      97              0.0000000000
     13334        97  DOPC      H17R          -26.5176987967      -21.6411145744        0.7323360065  MEMB      97              0.0000000000
     13335        97  DOPC      H17S          -25.6107859232      -20.0872268274        0.7097498551  MEMB      97              0.0000000000
     13336        97  DOPC      C218          -24.4368195676      -21.8419909184        0.1984940003  MEMB      97              0.0000000000
     13337        97  DOPC      H18R          -24.6242465185      -22.9351547281        0.1185319423  MEMB      97              0.0000000000
     13338        97  DOPC      H18S          -23.9224429403      -21.6724305521        1.1725174802  MEMB      97              0.0000000000
     13339        97  DOPC      H18T          -23.7468020768      -21.5356177193       -0.6144620272  MEMB      97              0.0000000000
     13340        97  DOPC      C33           -27.4979435249      -23.7876143547       -9.3623697241  MEMB      97              0.0000000000
     13341        97  DOPC      H3X           -26.4633486771      -24.1345101472       -9.5589689665  MEMB      97              0.0000000000
     13342        97  DOPC      H3Y           -28.0353828258      -24.6402082429       -8.8868194635  MEMB      97              0.0000000000
     13343        97  DOPC      C34           -27.4175943295      -22.6172857061       -8.3576521435  MEMB      97              0.0000000000
     13344        97  DOPC      H4X           -26.8881475919      -22.9685880650       -7.4443245013  MEMB      97              0.0000000000
     13345        97  DOPC      H4Y           -28.4398100483      -22.3614771958       -8.0143641426  MEMB      97              0.0000000000
     13346        97  DOPC      C35           -26.7043777388      -21.3431620042       -8.8738126691  MEMB      97              0.0000000000
     13347        97  DOPC      H5X           -27.2482787057      -20.9452622825       -9.7488639370  MEMB      97              0.0000000000
     13348        97  DOPC      H5Y           -25.6837122080      -21.5792697435       -9.2343006802  MEMB      97              0.0000000000
     13349        97  DOPC      C36           -26.6087891285      -20.2340748581       -7.8064372484  MEMB      97              0.0000000000
     13350        97  DOPC      H6X           -27.6229068016      -20.0919542539       -7.3730843169  MEMB      97              0.0000000000
     13351        97  DOPC      H6Y           -25.9685284774      -20.6114946983       -6.9860863079  MEMB      97              0.0000000000
     13352        97  DOPC      C37           -26.1396036498      -18.8499846007       -8.3384430797  MEMB      97              0.0000000000
     13353        97  DOPC      H7X           -25.9366100585      -18.9389503555       -9.4276117014  MEMB      97              0.0000000000
     13354        97  DOPC      H7Y           -26.9887309772      -18.1362874445       -8.2106037705  MEMB      97              0.0000000000
     13355        97  DOPC      C38           -24.9295023409      -18.1910995908       -7.6638439349  MEMB      97              0.0000000000
     13356        97  DOPC      H8X           -24.8054542261      -17.1498460314       -8.0414485534  MEMB      97              0.0000000000
     13357        97  DOPC      H8Y           -24.0042080483      -18.7483006617       -7.9318771990  MEMB      97              0.0000000000
     13358        97  DOPC      C39           -25.1832363984      -18.1725081972       -6.1894337096  MEMB      97              0.0000000000
     13359        97  DOPC      H9X           -25.9095442085      -17.4321070057       -5.8173168842  MEMB      97              0.0000000000
     13360        97  DOPC      C310          -24.5891532785      -19.0002390338       -5.3282003739  MEMB      97              0.0000000000
     13361        97  DOPC      H10X          -24.9289089006      -19.0022357951       -4.2849516830  MEMB      97              0.0000000000
     13362        97  DOPC      C311          -23.5883150899      -20.0693485883       -5.6427151212  MEMB      97              0.0000000000
     13363        97  DOPC      H11X          -22.5914093495      -19.6006096302       -5.7148727386  MEMB      97              0.0000000000
     13364        97  DOPC      H11Y          -23.7892830139      -20.5639476423       -6.6191958254  MEMB      97              0.0000000000
     13365        97  DOPC      C312          -23.6050375774      -21.1154749679       -4.5195471949  MEMB      97              0.0000000000
     13366        97  DOPC      H12X          -23.3330799772      -20.6497008980       -3.5458569864  MEMB      97              0.0000000000
     13367        97  DOPC      H12Y          -22.8534103389      -21.9056828364       -4.7418241464  MEMB      97              0.0000000000
     13368        97  DOPC      C313          -24.9739042713      -21.7796302377       -4.4094472927  MEMB      97              0.0000000000
     13369        97  DOPC      H13X          -25.7584730203      -21.0309268996       -4.2142175430  MEMB      97              0.0000000000
     13370        97  DOPC      H13Y          -25.1900481508      -22.2239390605       -5.4082951334  MEMB      97              0.0000000000
     13371        97  DOPC      C314          -25.0505225836      -22.8775463024       -3.3537010523  MEMB      97              0.0000000000
     13372        97  DOPC      H14X          -24.0383373984      -23.2786850974       -3.2027316226  MEMB      97              0.0000000000
     13373        97  DOPC      H14Y          -25.2508408781      -22.5049121804       -2.3524408093  MEMB      97              0.0000000000
     13374        97  DOPC      C315          -26.0557062613      -23.9401200635       -3.8121408134  MEMB      97              0.0000000000
     13375        97  DOPC      H15X          -25.4955502054      -24.7701258120       -4.2696408369  MEMB      97              0.0000000000
     13376        97  DOPC      H15Y          -26.7013719098      -23.5123156639       -4.6146133607  MEMB      97              0.0000000000
     13377        97  DOPC      C316          -26.9665179944      -24.5568416628       -2.7627517273  MEMB      97              0.0000000000
     13378        97  DOPC      H16X          -26.9666082818      -23.9759506480       -1.8158530885  MEMB      97              0.0000000000
     13379        97  DOPC      H16Y          -27.9977411706      -24.5384112914       -3.1715743041  MEMB      97              0.0000000000
     13380        97  DOPC      C317          -26.6309435628      -26.0248615692       -2.5240061411  MEMB      97              0.0000000000
     13381        97  DOPC      H17X          -26.9080927148      -26.6198531305       -3.4227750617  MEMB      97              0.0000000000
     13382        97  DOPC      H17Y          -25.5389874891      -26.1324321996       -2.3948888765  MEMB      97              0.0000000000
     13383        97  DOPC      C318          -27.3458089284      -26.5777449501       -1.3125315204  MEMB      97              0.0000000000
     13384        97  DOPC      H18X          -27.1972872939      -25.9320368183       -0.4204956563  MEMB      97              0.0000000000
     13385        97  DOPC      H18Y          -28.4329172463      -26.5931469569       -1.5316956803  MEMB      97              0.0000000000
     13386        97  DOPC      H18Z          -26.9888176054      -27.6050627793       -1.0741664569  MEMB      97              0.0000000000
     13387        98  DOPC      N             -22.1484894897      -26.1244767847      -20.4855979065  MEMB      98              0.0000000000
     13388        98  DOPC      C12           -23.3461902071      -27.0489880805      -20.3494123486  MEMB      98              0.0000000000
     13389        98  DOPC      H12A          -23.9780537766      -27.0137279547      -21.2277796322  MEMB      98              0.0000000000
     13390        98  DOPC      H12B          -23.9972467396      -26.6636546131      -19.5551275953  MEMB      98              0.0000000000
     13391        98  DOPC      C13           -21.5113736688      -25.9653485893      -19.1332399607  MEMB      98              0.0000000000
     13392        98  DOPC      H13A          -21.5075795597      -26.9244276528      -18.6150700206  MEMB      98              0.0000000000
     13393        98  DOPC      H13B          -20.5052276869      -25.5786322765      -19.1765807511  MEMB      98              0.0000000000
     13394        98  DOPC      H13C          -22.1059011761      -25.2963719329      -18.5154351968  MEMB      98              0.0000000000
     13395        98  DOPC      C14           -22.5968403624      -24.7731113615      -20.9477482970  MEMB      98              0.0000000000
     13396        98  DOPC      H14A          -23.1180866292      -24.8126076062      -21.9003352264  MEMB      98              0.0000000000
     13397        98  DOPC      H14B          -23.3297236339      -24.3397151211      -20.2570135315  MEMB      98              0.0000000000
     13398        98  DOPC      H14C          -21.7495779354      -24.1055175581      -21.0087993642  MEMB      98              0.0000000000
     13399        98  DOPC      C15           -21.1693301457      -26.7537402871      -21.4210141709  MEMB      98              0.0000000000
     13400        98  DOPC      H15A          -21.5753117491      -26.8834885677      -22.4189190706  MEMB      98              0.0000000000
     13401        98  DOPC      H15B          -20.9152324477      -27.7505672160      -21.0517538182  MEMB      98              0.0000000000
     13402        98  DOPC      H15C          -20.2516126700      -26.1867253935      -21.5042119181  MEMB      98              0.0000000000
     13403        98  DOPC      C11           -23.0235337445      -28.5090997717      -19.9402127714  MEMB      98              0.0000000000
     13404        98  DOPC      H11A          -23.8707331150      -29.1906772213      -20.1921450702  MEMB      98              0.0000000000
     13405        98  DOPC      H11B          -22.1631605321      -28.9244703277      -20.4978138590  MEMB      98              0.0000000000
     13406        98  DOPC      P             -23.9897170212      -28.4546650588      -17.5820098914  MEMB      98              0.0000000000
     13407        98  DOPC      O13           -24.5853363825      -29.8012646309      -17.4629425025  MEMB      98              0.0000000000
     13408        98  DOPC      O14           -24.8529087173      -27.3424022049      -18.0255218496  MEMB      98              0.0000000000
     13409        98  DOPC      O12           -22.7114306023      -28.5509118563      -18.5483413852  MEMB      98              0.0000000000
     13410        98  DOPC      O11           -23.2710632378      -28.0277460777      -16.2236907084  MEMB      98              0.0000000000
     13411        98  DOPC      C1            -22.2303220002      -28.8657698071      -15.7147501754  MEMB      98              0.0000000000
     13412        98  DOPC      HA            -21.3656468476      -28.8943204472      -16.4180763048  MEMB      98              0.0000000000
     13413        98  DOPC      HB            -22.6026588844      -29.9104691789      -15.5948835531  MEMB      98              0.0000000000
     13414        98  DOPC      C2            -21.6944964145      -28.4024341311      -14.3242791670  MEMB      98              0.0000000000
     13415        98  DOPC      HS            -21.1660973794      -29.2792916993      -13.8708595079  MEMB      98              0.0000000000
     13416        98  DOPC      O21           -22.7306502998      -27.8644126841      -13.4572791990  MEMB      98              0.0000000000
     13417        98  DOPC      C21           -23.3209921344      -28.8133341571      -12.7416333456  MEMB      98              0.0000000000
     13418        98  DOPC      O22           -23.0597456871      -30.0010493962      -12.8327283625  MEMB      98              0.0000000000
     13419        98  DOPC      C22           -24.1989763867      -28.2300302142      -11.6364780920  MEMB      98              0.0000000000
     13420        98  DOPC      H2R           -25.1923507330      -27.9869253542      -12.0612459710  MEMB      98              0.0000000000
     13421        98  DOPC      H2S           -23.7170415861      -27.2980371777      -11.2798067557  MEMB      98              0.0000000000
     13422        98  DOPC      C3            -20.5907958104      -27.3327846755      -14.4690423156  MEMB      98              0.0000000000
     13423        98  DOPC      HX            -21.1132870403      -26.3906721753      -14.7702668986  MEMB      98              0.0000000000
     13424        98  DOPC      HY            -19.8811507074      -27.6206231386      -15.2745473966  MEMB      98              0.0000000000
     13425        98  DOPC      O31           -19.8833879337      -27.2395067145      -13.2126686621  MEMB      98              0.0000000000
     13426        98  DOPC      C31           -19.4554988522      -26.0140946502      -12.9404943363  MEMB      98              0.0000000000
     13427        98  DOPC      O32           -19.5041190383      -25.0637663118      -13.6932108476  MEMB      98              0.0000000000
     13428        98  DOPC      C32           -18.9719516436      -25.9687959990      -11.4914185748  MEMB      98              0.0000000000
     13429        98  DOPC      H2X           -18.9283020740      -26.9898497634      -11.0675280578  MEMB      98              0.0000000000
     13430        98  DOPC      H2Y           -17.9648533991      -25.5015011983      -11.4782078868  MEMB      98              0.0000000000
     13431        98  DOPC      C23           -24.3363783510      -29.2388814469      -10.4547558455  MEMB      98              0.0000000000
     13432        98  DOPC      H3R           -23.3445519653      -29.6999859257      -10.2355291440  MEMB      98              0.0000000000
     13433        98  DOPC      H3S           -25.0175228730      -30.0668635241      -10.7564653900  MEMB      98              0.0000000000
     13434        98  DOPC      C24           -24.8253918802      -28.5938309427       -9.1497352167  MEMB      98              0.0000000000
     13435        98  DOPC      H4R           -25.7588700936      -28.0210217840       -9.3493256881  MEMB      98              0.0000000000
     13436        98  DOPC      H4S           -24.0491482091      -27.8737077309       -8.8032192705  MEMB      98              0.0000000000
     13437        98  DOPC      C25           -25.1013774719      -29.5988967209       -8.0154547516  MEMB      98              0.0000000000
     13438        98  DOPC      H5R           -24.2672427917      -30.3304556663       -7.9257588002  MEMB      98              0.0000000000
     13439        98  DOPC      H5S           -26.0272236546      -30.1683964908       -8.2597607706  MEMB      98              0.0000000000
     13440        98  DOPC      C26           -25.2911766881      -28.8742228252       -6.6721602839  MEMB      98              0.0000000000
     13441        98  DOPC      H6R           -25.9176247430      -27.9776621728       -6.8854814644  MEMB      98              0.0000000000
     13442        98  DOPC      H6S           -24.3020449095      -28.5270930438       -6.2975062400  MEMB      98              0.0000000000
     13443        98  DOPC      C27           -26.0278729062      -29.6656568031       -5.5768181138  MEMB      98              0.0000000000
     13444        98  DOPC      H7R           -26.4430424297      -30.6012956692       -5.9960175399  MEMB      98              0.0000000000
     13445        98  DOPC      H7S           -26.9114747430      -29.0752646474       -5.2927409371  MEMB      98              0.0000000000
     13446        98  DOPC      C28           -25.2289843615      -29.9145211367       -4.2844767794  MEMB      98              0.0000000000
     13447        98  DOPC      H8R           -25.9039981225      -30.3683779594       -3.5239224857  MEMB      98              0.0000000000
     13448        98  DOPC      H8S           -24.8630306082      -28.9498069497       -3.8744460042  MEMB      98              0.0000000000
     13449        98  DOPC      C29           -24.1235533355      -30.8602501732       -4.6426150092  MEMB      98              0.0000000000
     13450        98  DOPC      H9R           -24.4633757317      -31.8782534320       -4.8484506568  MEMB      98              0.0000000000
     13451        98  DOPC      C210          -22.8029582078      -30.6767062039       -4.6427396029  MEMB      98              0.0000000000
     13452        98  DOPC      H10R          -22.2136617848      -31.4766897427       -5.0870523791  MEMB      98              0.0000000000
     13453        98  DOPC      C211          -21.9952259285      -29.4714931235       -4.2754316385  MEMB      98              0.0000000000
     13454        98  DOPC      H11R          -21.3770056383      -29.6937023587       -3.3770367033  MEMB      98              0.0000000000
     13455        98  DOPC      H11S          -22.6800911310      -28.6687531773       -3.9860031555  MEMB      98              0.0000000000
     13456        98  DOPC      C212          -21.0477537439      -28.9991737171       -5.3900584023  MEMB      98              0.0000000000
     13457        98  DOPC      H12R          -21.6433399862      -28.7443340855       -6.2957161801  MEMB      98              0.0000000000
     13458        98  DOPC      H12S          -20.3512214667      -29.8281868991       -5.6480547734  MEMB      98              0.0000000000
     13459        98  DOPC      C213          -20.1748902862      -27.7982850050       -4.9906170424  MEMB      98              0.0000000000
     13460        98  DOPC      H13R          -19.1637257528      -28.2006729129       -4.7848813034  MEMB      98              0.0000000000
     13461        98  DOPC      H13S          -20.5393934854      -27.3454867394       -4.0471404691  MEMB      98              0.0000000000
     13462        98  DOPC      C214          -20.0739348940      -26.7294948050       -6.0924002482  MEMB      98              0.0000000000
     13463        98  DOPC      H14R          -21.0697100491      -26.3059445674       -6.2945444375  MEMB      98              0.0000000000
     13464        98  DOPC      H14S          -19.7555796224      -27.2550371277       -7.0210718098  MEMB      98              0.0000000000
     13465        98  DOPC      C215          -19.0358731541      -25.6336674931       -5.8061939204  MEMB      98              0.0000000000
     13466        98  DOPC      H15R          -18.4224316119      -25.4664378704       -6.7210767876  MEMB      98              0.0000000000
     13467        98  DOPC      H15S          -18.3713693420      -26.0331913098       -5.0152301447  MEMB      98              0.0000000000
     13468        98  DOPC      C216          -19.5367884595      -24.2582885805       -5.3441821852  MEMB      98              0.0000000000
     13469        98  DOPC      H16R          -20.1409375266      -24.3510009045       -4.4152947466  MEMB      98              0.0000000000
     13470        98  DOPC      H16S          -20.1887318871      -23.7969774976       -6.1220852944  MEMB      98              0.0000000000
     13471        98  DOPC      C217          -18.3456036961      -23.3245360110       -5.0691786909  MEMB      98              0.0000000000
     13472        98  DOPC      H17R          -18.7097223300      -22.4398831184       -4.5356333619  MEMB      98              0.0000000000
     13473        98  DOPC      H17S          -17.9106610432      -22.9921897578       -6.0395277825  MEMB      98              0.0000000000
     13474        98  DOPC      C218          -17.2398424511      -23.8707885077       -4.1775937812  MEMB      98              0.0000000000
     13475        98  DOPC      H18R          -16.4675275836      -23.0996519525       -3.9761236521  MEMB      98              0.0000000000
     13476        98  DOPC      H18S          -16.7396535963      -24.7036462861       -4.6915690682  MEMB      98              0.0000000000
     13477        98  DOPC      H18T          -17.6630117620      -24.2218637132       -3.2117088427  MEMB      98              0.0000000000
     13478        98  DOPC      C33           -19.9133309202      -25.1759547226      -10.5981811751  MEMB      98              0.0000000000
     13479        98  DOPC      H3X           -19.8911727246      -24.1169169444      -10.9156773055  MEMB      98              0.0000000000
     13480        98  DOPC      H3Y           -19.5411432382      -25.2233797159       -9.5489793861  MEMB      98              0.0000000000
     13481        98  DOPC      C34           -21.3639336743      -25.6399571186      -10.6542626809  MEMB      98              0.0000000000
     13482        98  DOPC      H4X           -21.4756794435      -26.5862347319      -10.0796115813  MEMB      98              0.0000000000
     13483        98  DOPC      H4Y           -21.6882135361      -25.8334658801      -11.7027092579  MEMB      98              0.0000000000
     13484        98  DOPC      C35           -22.2741727213      -24.5528088396      -10.0842062044  MEMB      98              0.0000000000
     13485        98  DOPC      H5X           -23.2933690214      -24.9864090275      -10.0091565053  MEMB      98              0.0000000000
     13486        98  DOPC      H5Y           -22.3204603853      -23.6988288338      -10.7996235943  MEMB      98              0.0000000000
     13487        98  DOPC      C36           -21.7761117937      -24.0365451626       -8.7222348191  MEMB      98              0.0000000000
     13488        98  DOPC      H6X           -21.5924473174      -24.9132090433       -8.0636833579  MEMB      98              0.0000000000
     13489        98  DOPC      H6Y           -20.8037596945      -23.5068037197       -8.8378231762  MEMB      98              0.0000000000
     13490        98  DOPC      C37           -22.7314078053      -23.0617456985       -8.0309259999  MEMB      98              0.0000000000
     13491        98  DOPC      H7X           -22.4277851041      -22.9143592273       -6.9725030074  MEMB      98              0.0000000000
     13492        98  DOPC      H7Y           -22.6395138253      -22.0693884616       -8.5325922391  MEMB      98              0.0000000000
     13493        98  DOPC      C38           -24.2177810078      -23.4466137473       -8.1163922832  MEMB      98              0.0000000000
     13494        98  DOPC      H8X           -24.4916670192      -23.3581633154       -9.1906930299  MEMB      98              0.0000000000
     13495        98  DOPC      H8Y           -24.7542520980      -22.6414676435       -7.5713693322  MEMB      98              0.0000000000
     13496        98  DOPC      C39           -24.7313939145      -24.7762732613       -7.6379082073  MEMB      98              0.0000000000
     13497        98  DOPC      H9X           -25.5285590461      -25.2399402138       -8.2331049852  MEMB      98              0.0000000000
     13498        98  DOPC      C310          -24.3591803334      -25.4420000410       -6.5629472342  MEMB      98              0.0000000000
     13499        98  DOPC      H10X          -24.8605113284      -26.3887037633       -6.3435730725  MEMB      98              0.0000000000
     13500        98  DOPC      C311          -23.3430325743      -25.0508573815       -5.5505098352  MEMB      98              0.0000000000
     13501        98  DOPC      H11X          -23.6215871191      -24.1249713967       -5.0218477319  MEMB      98              0.0000000000
     13502        98  DOPC      H11Y          -22.3479068017      -24.8572073010       -5.9867938173  MEMB      98              0.0000000000
     13503        98  DOPC      C312          -23.3544934837      -26.2423279292       -4.6009451705  MEMB      98              0.0000000000
     13504        98  DOPC      H12X          -22.8466248585      -27.0799759118       -5.1142500754  MEMB      98              0.0000000000
     13505        98  DOPC      H12Y          -24.3824205667      -26.5849635181       -4.3320439186  MEMB      98              0.0000000000
     13506        98  DOPC      C313          -22.7013209320      -25.8829558017       -3.2905786055  MEMB      98              0.0000000000
     13507        98  DOPC      H13X          -21.6455899078      -25.6281365299       -3.4877417957  MEMB      98              0.0000000000
     13508        98  DOPC      H13Y          -23.1993020708      -24.9664158042       -2.9241025970  MEMB      98              0.0000000000
     13509        98  DOPC      C314          -22.8794469280      -26.9296278004       -2.1981264211  MEMB      98              0.0000000000
     13510        98  DOPC      H14X          -23.7217044240      -27.6168266737       -2.4406514224  MEMB      98              0.0000000000
     13511        98  DOPC      H14Y          -21.9583045821      -27.5458551060       -2.1105217237  MEMB      98              0.0000000000
     13512        98  DOPC      C315          -23.2063766489      -26.2474325501       -0.8795343697  MEMB      98              0.0000000000
     13513        98  DOPC      H15X          -24.2052589820      -25.7641904789       -0.9289399944  MEMB      98              0.0000000000
     13514        98  DOPC      H15Y          -22.4753933567      -25.4316932438       -0.6911839135  MEMB      98              0.0000000000
     13515        98  DOPC      C316          -23.1966109856      -27.2347953738        0.2712188921  MEMB      98              0.0000000000
     13516        98  DOPC      H16X          -24.0087482439      -27.9749728161        0.1167295784  MEMB      98              0.0000000000
     13517        98  DOPC      H16Y          -22.2463312190      -27.8100906609        0.2726948259  MEMB      98              0.0000000000
     13518        98  DOPC      C317          -23.3974533667      -26.5013239192        1.5904539067  MEMB      98              0.0000000000
     13519        98  DOPC      H17X          -22.8332705123      -27.0203901859        2.3965312672  MEMB      98              0.0000000000
     13520        98  DOPC      H17Y          -22.9779417925      -25.4717190890        1.5059954338  MEMB      98              0.0000000000
     13521        98  DOPC      C318          -24.8816042521      -26.4434372340        1.9383965385  MEMB      98              0.0000000000
     13522        98  DOPC      H18X          -25.2907208863      -27.4727518596        2.0289683132  MEMB      98              0.0000000000
     13523        98  DOPC      H18Y          -25.0404105973      -25.9118671103        2.8975803386  MEMB      98              0.0000000000
     13524        98  DOPC      H18Z          -25.4417864047      -25.9214442737        1.1310023741  MEMB      98              0.0000000000
     13525        99  DOPC      N             -26.8680436625       24.0939463258      -21.2186099442  MEMB      99              0.0000000000
     13526        99  DOPC      C12           -26.4050695711       23.1742838965      -20.0866774077  MEMB      99              0.0000000000
     13527        99  DOPC      H12A          -25.5721043920       22.5602254900      -20.4000723209  MEMB      99              0.0000000000
     13528        99  DOPC      H12B          -27.2213180282       22.4779430769      -19.8791089273  MEMB      99              0.0000000000
     13529        99  DOPC      C13           -25.7707298930       25.0404404684      -21.5983273947  MEMB      99              0.0000000000
     13530        99  DOPC      H13A          -26.1202709639       25.7235701460      -22.3732417375  MEMB      99              0.0000000000
     13531        99  DOPC      H13B          -25.4555298766       25.6213106480      -20.7328522616  MEMB      99              0.0000000000
     13532        99  DOPC      H13C          -24.9274537226       24.4972863705      -22.0190175250  MEMB      99              0.0000000000
     13533        99  DOPC      C14           -28.0390136948       24.8742140328      -20.6914941804  MEMB      99              0.0000000000
     13534        99  DOPC      H14A          -28.3289329433       25.7229378461      -21.2820828418  MEMB      99              0.0000000000
     13535        99  DOPC      H14B          -28.9045067896       24.2442372051      -20.5015818712  MEMB      99              0.0000000000
     13536        99  DOPC      H14C          -27.7837105159       25.2454505473      -19.6898328834  MEMB      99              0.0000000000
     13537        99  DOPC      C15           -27.2425007929       23.2589039006      -22.4237902266  MEMB      99              0.0000000000
     13538        99  DOPC      H15A          -28.1616026011       22.6926779858      -22.2694440151  MEMB      99              0.0000000000
     13539        99  DOPC      H15B          -26.4805690761       22.5145924503      -22.6651465490  MEMB      99              0.0000000000
     13540        99  DOPC      H15C          -27.3687771753       23.8620513948      -23.3260260782  MEMB      99              0.0000000000
     13541        99  DOPC      C11           -26.1167966178       23.7940699745      -18.6848567871  MEMB      99              0.0000000000
     13542        99  DOPC      H11A          -25.5819031457       23.0373186674      -18.0609909736  MEMB      99              0.0000000000
     13543        99  DOPC      H11B          -25.4327906921       24.6660807583      -18.7763109677  MEMB      99              0.0000000000
     13544        99  DOPC      P             -28.3375367591       23.1017844107      -17.4768668743  MEMB      99              0.0000000000
     13545        99  DOPC      O13           -28.3044644138       21.9857092862      -18.4519167245  MEMB      99              0.0000000000
     13546        99  DOPC      O14           -29.6458624340       23.7223341023      -17.2063961008  MEMB      99              0.0000000000
     13547        99  DOPC      O12           -27.3253159982       24.2074384828      -18.0381685752  MEMB      99              0.0000000000
     13548        99  DOPC      O11           -27.6407059511       22.6473595475      -16.1216466678  MEMB      99              0.0000000000
     13549        99  DOPC      C1            -27.6597614440       23.5814562550      -15.0271935241  MEMB      99              0.0000000000
     13550        99  DOPC      HA            -28.5021868331       23.3614834716      -14.3329892234  MEMB      99              0.0000000000
     13551        99  DOPC      HB            -27.7798469122       24.6327557577      -15.3897231996  MEMB      99              0.0000000000
     13552        99  DOPC      C2            -26.3290775389       23.5844643881      -14.2276540580  MEMB      99              0.0000000000
     13553        99  DOPC      HS            -25.5397159154       23.5286068215      -15.0171653664  MEMB      99              0.0000000000
     13554        99  DOPC      O21           -26.2911190121       22.4755324671      -13.3020805545  MEMB      99              0.0000000000
     13555        99  DOPC      C21           -25.1406532058       21.8222854858      -13.2818799923  MEMB      99              0.0000000000
     13556        99  DOPC      O22           -24.1781471047       22.0493418544      -13.9889513095  MEMB      99              0.0000000000
     13557        99  DOPC      C22           -25.2142000975       20.7068061016      -12.2425193065  MEMB      99              0.0000000000
     13558        99  DOPC      H2R           -24.5648621492       19.8790180395      -12.5981619229  MEMB      99              0.0000000000
     13559        99  DOPC      H2S           -26.2603510116       20.3412427266      -12.1776929392  MEMB      99              0.0000000000
     13560        99  DOPC      C3            -26.0930373381       24.9142732282      -13.4400496210  MEMB      99              0.0000000000
     13561        99  DOPC      HX            -26.1436209452       25.7743767833      -14.1480608483  MEMB      99              0.0000000000
     13562        99  DOPC      HY            -25.0464855837       24.8817798499      -13.0611689260  MEMB      99              0.0000000000
     13563        99  DOPC      O31           -26.9717028963       25.0816388423      -12.3000515002  MEMB      99              0.0000000000
     13564        99  DOPC      C31           -28.1538793071       25.6290877503      -12.5500825355  MEMB      99              0.0000000000
     13565        99  DOPC      O32           -28.5838848695       25.9476405697      -13.6396229763  MEMB      99              0.0000000000
     13566        99  DOPC      C32           -28.9484095217       25.8227059697      -11.2624627384  MEMB      99              0.0000000000
     13567        99  DOPC      H2X           -28.2597171094       25.8783242414      -10.3961912959  MEMB      99              0.0000000000
     13568        99  DOPC      H2Y           -29.4789907552       26.7915232553      -11.3636054761  MEMB      99              0.0000000000
     13569        99  DOPC      C23           -24.7097075406       21.1969425306      -10.8738877484  MEMB      99              0.0000000000
     13570        99  DOPC      H3R           -23.6454765148       21.5142989586      -10.9548742437  MEMB      99              0.0000000000
     13571        99  DOPC      H3S           -24.7520445556       20.3590282650      -10.1457910008  MEMB      99              0.0000000000
     13572        99  DOPC      C24           -25.5289376799       22.3471424641      -10.2889173450  MEMB      99              0.0000000000
     13573        99  DOPC      H4R           -26.5234522475       21.9824879868       -9.9608027016  MEMB      99              0.0000000000
     13574        99  DOPC      H4S           -25.7145460548       23.1391542369      -11.0464264115  MEMB      99              0.0000000000
     13575        99  DOPC      C25           -24.8134897924       23.0058565859       -9.1127610609  MEMB      99              0.0000000000
     13576        99  DOPC      H5R           -23.8613153377       23.4574171691       -9.4738151399  MEMB      99              0.0000000000
     13577        99  DOPC      H5S           -24.5582473567       22.2459282504       -8.3428868227  MEMB      99              0.0000000000
     13578        99  DOPC      C26           -25.6856556413       24.0916099020       -8.4929315367  MEMB      99              0.0000000000
     13579        99  DOPC      H6R           -26.5782126918       23.6344231660       -8.0113605538  MEMB      99              0.0000000000
     13580        99  DOPC      H6S           -26.0586780162       24.7648424893       -9.2996985726  MEMB      99              0.0000000000
     13581        99  DOPC      C27           -24.9141923298       24.9170571253       -7.4689309681  MEMB      99              0.0000000000
     13582        99  DOPC      H7R           -24.0308835241       25.3552188029       -7.9911377095  MEMB      99              0.0000000000
     13583        99  DOPC      H7S           -24.5284264482       24.2776187890       -6.6447252543  MEMB      99              0.0000000000
     13584        99  DOPC      C28           -25.7690440174       26.0701094907       -6.9352917427  MEMB      99              0.0000000000
     13585        99  DOPC      H8R           -26.4394941132       26.4321002648       -7.7461818063  MEMB      99              0.0000000000
     13586        99  DOPC      H8S           -25.0668131822       26.9090966448       -6.7548405080  MEMB      99              0.0000000000
     13587        99  DOPC      C29           -26.5368966949       25.7474783795       -5.6746098423  MEMB      99              0.0000000000
     13588        99  DOPC      H9R           -25.9618799716       25.8369008609       -4.7407438772  MEMB      99              0.0000000000
     13589        99  DOPC      C210          -27.8101279577       25.3366266665       -5.5866795310  MEMB      99              0.0000000000
     13590        99  DOPC      H10R          -28.2337326781       25.1600886989       -4.5848931309  MEMB      99              0.0000000000
     13591        99  DOPC      C211          -28.7621785630       25.0979445909       -6.7309698225  MEMB      99              0.0000000000
     13592        99  DOPC      H11R          -29.0337413892       24.0209804495       -6.7563953914  MEMB      99              0.0000000000
     13593        99  DOPC      H11S          -28.2900982067       25.3206221523       -7.7133211552  MEMB      99              0.0000000000
     13594        99  DOPC      C212          -30.0562185231       25.9270382846       -6.6440959183  MEMB      99              0.0000000000
     13595        99  DOPC      H12R          -30.7205305857       25.6362215007       -7.4871567650  MEMB      99              0.0000000000
     13596        99  DOPC      H12S          -29.7766918332       26.9881990227       -6.7970445504  MEMB      99              0.0000000000
     13597        99  DOPC      C213          -30.8410311585       25.8074886854       -5.3273263421  MEMB      99              0.0000000000
     13598        99  DOPC      H13R          -31.8091225750       26.3511033589       -5.4249726568  MEMB      99              0.0000000000
     13599        99  DOPC      H13S          -30.2697779470       26.3289371293       -4.5246914161  MEMB      99              0.0000000000
     13600        99  DOPC      C214          -31.1082620071       24.3676833400       -4.8706741514  MEMB      99              0.0000000000
     13601        99  DOPC      H14R          -30.1697311054       23.7733355638       -4.8863019085  MEMB      99              0.0000000000
     13602        99  DOPC      H14S          -31.8283874547       23.8746386373       -5.5620080089  MEMB      99              0.0000000000
     13603        99  DOPC      C215          -31.6450475259       24.3536966183       -3.4385727147  MEMB      99              0.0000000000
     13604        99  DOPC      H15R          -32.6089665832       24.9137225607       -3.4438077131  MEMB      99              0.0000000000
     13605        99  DOPC      H15S          -30.9426882080       24.8960324929       -2.7694943960  MEMB      99              0.0000000000
     13606        99  DOPC      C216          -31.9133295136       22.9526476065       -2.8851810444  MEMB      99              0.0000000000
     13607        99  DOPC      H16R          -32.5583608137       22.4363046658       -3.6230800731  MEMB      99              0.0000000000
     13608        99  DOPC      H16S          -32.4606172751       23.0622699668       -1.9203489062  MEMB      99              0.0000000000
     13609        99  DOPC      C217          -30.7105816346       22.0431035480       -2.6381167595  MEMB      99              0.0000000000
     13610        99  DOPC      H17R          -30.0421508205       22.5418882191       -1.9024469195  MEMB      99              0.0000000000
     13611        99  DOPC      H17S          -30.1463702384       21.9229612140       -3.5894386255  MEMB      99              0.0000000000
     13612        99  DOPC      C218          -31.1073305986       20.6533345768       -2.1165683039  MEMB      99              0.0000000000
     13613        99  DOPC      H18R          -30.2128649530       20.0077312494       -1.9870832451  MEMB      99              0.0000000000
     13614        99  DOPC      H18S          -31.7907415187       20.1463077262       -2.8298624308  MEMB      99              0.0000000000
     13615        99  DOPC      H18T          -31.6343485979       20.7317676460       -1.1414112367  MEMB      99              0.0000000000
     13616        99  DOPC      C33           -29.9826782594       24.6925468164      -11.0941286725  MEMB      99              0.0000000000
     13617        99  DOPC      H3X           -30.5514851750       24.5336368855      -12.0414651012  MEMB      99              0.0000000000
     13618        99  DOPC      H3Y           -30.7129466540       24.9735706177      -10.3007729920  MEMB      99              0.0000000000
     13619        99  DOPC      C34           -29.2756967116       23.4040162779      -10.6744634489  MEMB      99              0.0000000000
     13620        99  DOPC      H4X           -28.8374053314       23.5636934543       -9.6623428634  MEMB      99              0.0000000000
     13621        99  DOPC      H4Y           -28.4303168277       23.1930299460      -11.3723236660  MEMB      99              0.0000000000
     13622        99  DOPC      C35           -30.1704898684       22.1642778003      -10.6681555238  MEMB      99              0.0000000000
     13623        99  DOPC      H5X           -30.3454511918       21.8483642642      -11.7242718576  MEMB      99              0.0000000000
     13624        99  DOPC      H5Y           -31.1567245752       22.3919446933      -10.2087475092  MEMB      99              0.0000000000
     13625        99  DOPC      C36           -29.4822917120       21.0431604519       -9.8841294218  MEMB      99              0.0000000000
     13626        99  DOPC      H6X           -29.8823716933       20.0607070313      -10.1959637755  MEMB      99              0.0000000000
     13627        99  DOPC      H6Y           -28.4031381878       21.0387996252      -10.1440409402  MEMB      99              0.0000000000
     13628        99  DOPC      C37           -29.6747847357       21.1897545395       -8.3652437580  MEMB      99              0.0000000000
     13629        99  DOPC      H7X           -29.5155676432       22.2431445791       -8.0482736647  MEMB      99              0.0000000000
     13630        99  DOPC      H7Y           -30.7381868638       20.9546018941       -8.1329301412  MEMB      99              0.0000000000
     13631        99  DOPC      C38           -28.7653114429       20.2595191004       -7.5424475532  MEMB      99              0.0000000000
     13632        99  DOPC      H8X           -28.7634257409       19.2459315860       -7.9934557297  MEMB      99              0.0000000000
     13633        99  DOPC      H8Y           -29.2134578472       20.1602434661       -6.5277373958  MEMB      99              0.0000000000
     13634        99  DOPC      C39           -27.3491967977       20.7557682837       -7.4664243658  MEMB      99              0.0000000000
     13635        99  DOPC      H9X           -26.7380199604       20.5880523393       -8.3645459532  MEMB      99              0.0000000000
     13636        99  DOPC      C310          -26.8077021838       21.4084912817       -6.4298873249  MEMB      99              0.0000000000
     13637        99  DOPC      H10X          -25.7637565108       21.7510175779       -6.5010332493  MEMB      99              0.0000000000
     13638        99  DOPC      C311          -27.5054950984       21.7738348875       -5.1504383320  MEMB      99              0.0000000000
     13639        99  DOPC      H11X          -28.6094715649       21.8304139284       -5.2652861931  MEMB      99              0.0000000000
     13640        99  DOPC      H11Y          -27.1754524711       22.7982338294       -4.8820813949  MEMB      99              0.0000000000
     13641        99  DOPC      C312          -27.1585485054       20.8392440663       -3.9795466227  MEMB      99              0.0000000000
     13642        99  DOPC      H12X          -26.1114634561       20.4985794054       -4.1065807050  MEMB      99              0.0000000000
     13643        99  DOPC      H12Y          -27.8022530727       19.9323601402       -3.9904637669  MEMB      99              0.0000000000
     13644        99  DOPC      C313          -27.2541970264       21.5764154094       -2.6344946800  MEMB      99              0.0000000000
     13645        99  DOPC      H13X          -27.1027772586       22.6609917602       -2.8285378764  MEMB      99              0.0000000000
     13646        99  DOPC      H13Y          -28.2626224031       21.4451767044       -2.2049079742  MEMB      99              0.0000000000
     13647        99  DOPC      C314          -26.2141968002       21.1555145545       -1.5939695021  MEMB      99              0.0000000000
     13648        99  DOPC      H14X          -26.3376135603       20.0760035951       -1.3515191799  MEMB      99              0.0000000000
     13649        99  DOPC      H14Y          -25.2040923571       21.3233745263       -2.0163910066  MEMB      99              0.0000000000
     13650        99  DOPC      C315          -26.2557047564       21.9762379932       -0.3046964801  MEMB      99              0.0000000000
     13651        99  DOPC      H15X          -25.4069503203       21.6615859176        0.3431380915  MEMB      99              0.0000000000
     13652        99  DOPC      H15Y          -27.1900672891       21.7098835821        0.2240377316  MEMB      99              0.0000000000
     13653        99  DOPC      C316          -26.1768948109       23.4963460005       -0.5306711067  MEMB      99              0.0000000000
     13654        99  DOPC      H16X          -25.4368665236       23.7133427983       -1.3342688084  MEMB      99              0.0000000000
     13655        99  DOPC      H16Y          -27.1671608133       23.8676655300       -0.8777917448  MEMB      99              0.0000000000
     13656        99  DOPC      C317          -25.7559506385       24.2551697780        0.7326761885  MEMB      99              0.0000000000
     13657        99  DOPC      H17X          -26.1704209129       23.7309727342        1.6226732114  MEMB      99              0.0000000000
     13658        99  DOPC      H17Y          -24.6459625267       24.2064465803        0.8138278185  MEMB      99              0.0000000000
     13659        99  DOPC      C318          -26.2207337292       25.7131099278        0.7661587081  MEMB      99              0.0000000000
     13660        99  DOPC      H18X          -25.8116612003       26.2236710497        1.6623974594  MEMB      99              0.0000000000
     13661        99  DOPC      H18Y          -25.8803848068       26.2557504817       -0.1408634489  MEMB      99              0.0000000000
     13662        99  DOPC      H18Z          -27.3280908766       25.7689357709        0.8228298478  MEMB      99              0.0000000000
     13663       100  DOPC      N              25.3616346591      -27.1488757766      -18.8122914163  MEMB      100             0.0000000000
     13664       100  DOPC      C12            26.5610042041      -27.8241898102      -18.1769553578  MEMB      100             0.0000000000
     13665       100  DOPC      H12A           26.7697653372      -28.7855508561      -18.6515896302  MEMB      100             0.0000000000
     13666       100  DOPC      H12B           26.3575818520      -28.0717967523      -17.1448838461  MEMB      100             0.0000000000
     13667       100  DOPC      C13            24.2017446241      -28.0809827323      -19.0353374821  MEMB      100             0.0000000000
     13668       100  DOPC      H13A           23.4652258280      -27.5957505458      -19.6737004189  MEMB      100             0.0000000000
     13669       100  DOPC      H13B           24.5091080177      -28.9898179711      -19.5544056497  MEMB      100             0.0000000000
     13670       100  DOPC      H13C           23.6981256333      -28.3594394969      -18.1204599481  MEMB      100             0.0000000000
     13671       100  DOPC      C14            25.8271190693      -26.6616722060      -20.1521999152  MEMB      100             0.0000000000
     13672       100  DOPC      H14A           25.1634911089      -25.9296693190      -20.5958610807  MEMB      100             0.0000000000
     13673       100  DOPC      H14B           26.8157329466      -26.2256481068      -20.0073115304  MEMB      100             0.0000000000
     13674       100  DOPC      H14C           25.9729818760      -27.4863100461      -20.8443140522  MEMB      100             0.0000000000
     13675       100  DOPC      C15            24.9569888086      -25.9765213465      -17.9616326682  MEMB      100             0.0000000000
     13676       100  DOPC      H15A           25.7941604408      -25.2977846888      -17.7953315092  MEMB      100             0.0000000000
     13677       100  DOPC      H15B           24.6222251295      -26.2880641075      -16.9777240743  MEMB      100             0.0000000000
     13678       100  DOPC      H15C           24.1640475484      -25.4017235175      -18.4175065070  MEMB      100             0.0000000000
     13679       100  DOPC      C11            27.9003125809      -27.0370883313      -18.2354292278  MEMB      100             0.0000000000
     13680       100  DOPC      H11A           27.7164199221      -25.9454789900      -18.1246730766  MEMB      100             0.0000000000
     13681       100  DOPC      H11B           28.5342189849      -27.3013151589      -17.3611630227  MEMB      100             0.0000000000
     13682       100  DOPC      P              29.2448327477      -28.6823687603      -19.8446205846  MEMB      100             0.0000000000
     13683       100  DOPC      O13            30.7216405074      -28.6845536148      -19.7588918092  MEMB      100             0.0000000000
     13684       100  DOPC      O14            28.6597516199      -29.0267318506      -21.1713212023  MEMB      100             0.0000000000
     13685       100  DOPC      O12            28.5888792798      -27.2734009800      -19.4627106463  MEMB      100             0.0000000000
     13686       100  DOPC      O11            28.6200646686      -29.6326016381      -18.7374826482  MEMB      100             0.0000000000
     13687       100  DOPC      C1             29.2618195879      -29.8529882964      -17.4744917237  MEMB      100             0.0000000000
     13688       100  DOPC      HA             29.6948132237      -28.9239791681      -17.0461479362  MEMB      100             0.0000000000
     13689       100  DOPC      HB             30.1043891466      -30.5687731259      -17.6091649567  MEMB      100             0.0000000000
     13690       100  DOPC      C2             28.2837599850      -30.4638508170      -16.4143092666  MEMB      100             0.0000000000
     13691       100  DOPC      HS             27.9202547903      -31.4150604563      -16.8691318427  MEMB      100             0.0000000000
     13692       100  DOPC      O21            27.1706159034      -29.5801218869      -16.1218173931  MEMB      100             0.0000000000
     13693       100  DOPC      C21            26.1429880384      -30.1846992335      -15.5289648593  MEMB      100             0.0000000000
     13694       100  DOPC      O22            25.9244453369      -31.3770076825      -15.4905733274  MEMB      100             0.0000000000
     13695       100  DOPC      C22            25.2034991869      -29.1396969636      -14.9499195012  MEMB      100             0.0000000000
     13696       100  DOPC      H2R            24.1671204642      -29.5152521797      -15.0503884976  MEMB      100             0.0000000000
     13697       100  DOPC      H2S            25.2877392565      -28.1984515739      -15.5286615118  MEMB      100             0.0000000000
     13698       100  DOPC      C3             29.0368450228      -30.8077057915      -15.0854365746  MEMB      100             0.0000000000
     13699       100  DOPC      HX             30.1098016423      -30.9881961720      -15.3301522946  MEMB      100             0.0000000000
     13700       100  DOPC      HY             28.6032816793      -31.7679698750      -14.7250186995  MEMB      100             0.0000000000
     13701       100  DOPC      O31            28.8555757115      -29.7997442148      -14.0577408763  MEMB      100             0.0000000000
     13702       100  DOPC      C31            29.7652067501      -29.8033048644      -13.0759723499  MEMB      100             0.0000000000
     13703       100  DOPC      O32            30.8330811660      -30.3795529342      -13.0983922233  MEMB      100             0.0000000000
     13704       100  DOPC      C32            29.2004617596      -29.0864775772      -11.8426342817  MEMB      100             0.0000000000
     13705       100  DOPC      H2X            29.1412291755      -28.0055740927      -12.0796319744  MEMB      100             0.0000000000
     13706       100  DOPC      H2Y            28.1755238355      -29.4667453523      -11.6591535843  MEMB      100             0.0000000000
     13707       100  DOPC      C23            25.5167961365      -28.8752574731      -13.4680370367  MEMB      100             0.0000000000
     13708       100  DOPC      H3R            26.6152828553      -28.9119012615      -13.2894427166  MEMB      100             0.0000000000
     13709       100  DOPC      H3S            25.0483471869      -29.6597035302      -12.8301849136  MEMB      100             0.0000000000
     13710       100  DOPC      C24            25.0245444127      -27.4878997077      -13.0678186411  MEMB      100             0.0000000000
     13711       100  DOPC      H4R            23.9504861792      -27.3885316224      -13.3473878404  MEMB      100             0.0000000000
     13712       100  DOPC      H4S            25.5907430985      -26.7209713316      -13.6445484336  MEMB      100             0.0000000000
     13713       100  DOPC      C25            25.1737901550      -27.2056538436      -11.5723394354  MEMB      100             0.0000000000
     13714       100  DOPC      H5R            26.2352165371      -27.3487490191      -11.2723723678  MEMB      100             0.0000000000
     13715       100  DOPC      H5S            24.5531000172      -27.9319301183      -11.0025037207  MEMB      100             0.0000000000
     13716       100  DOPC      C26            24.7344993355      -25.7751025052      -11.2419312155  MEMB      100             0.0000000000
     13717       100  DOPC      H6R            23.7469798416      -25.5862687271      -11.7220358819  MEMB      100             0.0000000000
     13718       100  DOPC      H6S            25.4632576789      -25.0766146832      -11.7070411743  MEMB      100             0.0000000000
     13719       100  DOPC      C27            24.6014196788      -25.4727476999       -9.7404139737  MEMB      100             0.0000000000
     13720       100  DOPC      H7R            23.7553840038      -26.0764366228       -9.3402085533  MEMB      100             0.0000000000
     13721       100  DOPC      H7S            24.3248942994      -24.4056800497       -9.6157819477  MEMB      100             0.0000000000
     13722       100  DOPC      C28            25.8439480861      -25.7774290597       -8.8801684866  MEMB      100             0.0000000000
     13723       100  DOPC      H8R            25.9715073299      -26.8828181036       -8.8659688411  MEMB      100             0.0000000000
     13724       100  DOPC      H8S            25.6035843066      -25.4740464575       -7.8360743131  MEMB      100             0.0000000000
     13725       100  DOPC      C29            27.1173228714      -25.1205767799       -9.3602753748  MEMB      100             0.0000000000
     13726       100  DOPC      H9R            27.3356806227      -25.2707369792      -10.4270695340  MEMB      100             0.0000000000
     13727       100  DOPC      C210           27.9954492991      -24.4072430977       -8.6332788946  MEMB      100             0.0000000000
     13728       100  DOPC      H10R           28.8628597116      -23.9751116432       -9.1407714385  MEMB      100             0.0000000000
     13729       100  DOPC      C211           27.9346496890      -24.0812154896       -7.1683985456  MEMB      100             0.0000000000
     13730       100  DOPC      H11R           27.0130845643      -23.4976838280       -6.9843068295  MEMB      100             0.0000000000
     13731       100  DOPC      H11S           28.8061383996      -23.4420027914       -6.9041815541  MEMB      100             0.0000000000
     13732       100  DOPC      C212           27.9663846920      -25.2619983009       -6.1944785783  MEMB      100             0.0000000000
     13733       100  DOPC      H12R           29.0206977560      -25.5992201892       -6.1106109962  MEMB      100             0.0000000000
     13734       100  DOPC      H12S           27.3487702820      -26.0827632430       -6.6198500488  MEMB      100             0.0000000000
     13735       100  DOPC      C213           27.4296576656      -24.9564145050       -4.7872169482  MEMB      100             0.0000000000
     13736       100  DOPC      H13R           26.7620155920      -25.7872705203       -4.4624411155  MEMB      100             0.0000000000
     13737       100  DOPC      H13S           26.8382483049      -24.0218261392       -4.8341019637  MEMB      100             0.0000000000
     13738       100  DOPC      C214           28.5303452965      -24.7843661291       -3.7363058789  MEMB      100             0.0000000000
     13739       100  DOPC      H14R           29.1854939136      -23.9549922928       -4.0694475813  MEMB      100             0.0000000000
     13740       100  DOPC      H14S           29.1604280130      -25.6953017621       -3.6853771794  MEMB      100             0.0000000000
     13741       100  DOPC      C215           28.0125379644      -24.4912294242       -2.3218337934  MEMB      100             0.0000000000
     13742       100  DOPC      H15R           28.0181073403      -25.4446067893       -1.7432503620  MEMB      100             0.0000000000
     13743       100  DOPC      H15S           26.9592413036      -24.1425699458       -2.3630561392  MEMB      100             0.0000000000
     13744       100  DOPC      C216           28.8539181253      -23.4362683374       -1.5865720548  MEMB      100             0.0000000000
     13745       100  DOPC      H16R           28.4109886302      -22.4276894075       -1.7393378487  MEMB      100             0.0000000000
     13746       100  DOPC      H16S           29.8735488552      -23.3895401078       -2.0101208914  MEMB      100             0.0000000000
     13747       100  DOPC      C217           29.0027384502      -23.7377959160       -0.0969430373  MEMB      100             0.0000000000
     13748       100  DOPC      H17R           29.8661268151      -23.1642158454        0.3116122214  MEMB      100             0.0000000000
     13749       100  DOPC      H17S           29.2287741615      -24.8196446363        0.0465976058  MEMB      100             0.0000000000
     13750       100  DOPC      C218           27.7472850663      -23.3664917935        0.6706621157  MEMB      100             0.0000000000
     13751       100  DOPC      H18R           27.9130003420      -23.4934810415        1.7624368413  MEMB      100             0.0000000000
     13752       100  DOPC      H18S           26.8980298751      -24.0057328136        0.3516374405  MEMB      100             0.0000000000
     13753       100  DOPC      H18T           27.4638513149      -22.3123058863        0.4687304138  MEMB      100             0.0000000000
     13754       100  DOPC      C33            30.0630991035      -29.2995238576      -10.5667406586  MEMB      100             0.0000000000
     13755       100  DOPC      H3X            31.1415294140      -29.1706953375      -10.8236824043  MEMB      100             0.0000000000
     13756       100  DOPC      H3Y            29.9407668806      -30.3330186904      -10.1738458734  MEMB      100             0.0000000000
     13757       100  DOPC      C34            29.7333373691      -28.2939709114       -9.4537780435  MEMB      100             0.0000000000
     13758       100  DOPC      H4X            29.8388295289      -27.2718185999       -9.8880294794  MEMB      100             0.0000000000
     13759       100  DOPC      H4Y            30.4805786532      -28.3791772561       -8.6354037127  MEMB      100             0.0000000000
     13760       100  DOPC      C35            28.3111436892      -28.4247102455       -8.8780489389  MEMB      100             0.0000000000
     13761       100  DOPC      H5X            27.5762812937      -28.5315010714       -9.7051734096  MEMB      100             0.0000000000
     13762       100  DOPC      H5Y            28.0722159477      -27.4679082887       -8.3620246632  MEMB      100             0.0000000000
     13763       100  DOPC      C36            28.0896783188      -29.5543053775       -7.8532367361  MEMB      100             0.0000000000
     13764       100  DOPC      H6X            27.0438290452      -29.4530336132       -7.4775331057  MEMB      100             0.0000000000
     13765       100  DOPC      H6Y            28.1734139041      -30.5427458115       -8.3514749086  MEMB      100             0.0000000000
     13766       100  DOPC      C37            29.0253361086      -29.5299006488       -6.6278766655  MEMB      100             0.0000000000
     13767       100  DOPC      H7X            28.6364954978      -30.2498327961       -5.8703928181  MEMB      100             0.0000000000
     13768       100  DOPC      H7Y            30.0462586791      -29.8573725475       -6.9238249442  MEMB      100             0.0000000000
     13769       100  DOPC      C38            29.1010041064      -28.1522184066       -5.9712751695  MEMB      100             0.0000000000
     13770       100  DOPC      H8X            28.0503209335      -27.8327450662       -5.7983159976  MEMB      100             0.0000000000
     13771       100  DOPC      H8Y            29.5630824275      -27.4562587830       -6.7029936814  MEMB      100             0.0000000000
     13772       100  DOPC      C39            29.8772791139      -28.0979951955       -4.6902341312  MEMB      100             0.0000000000
     13773       100  DOPC      H9X            30.8795316069      -27.6583295218       -4.7741802233  MEMB      100             0.0000000000
     13774       100  DOPC      C310           29.3958663988      -28.3507391104       -3.4702922436  MEMB      100             0.0000000000
     13775       100  DOPC      H10X           30.0534520978      -28.2447782660       -2.6004672873  MEMB      100             0.0000000000
     13776       100  DOPC      C311           27.9886460990      -28.7325274948       -3.1451087891  MEMB      100             0.0000000000
     13777       100  DOPC      H11X           27.3478093083      -28.8672136614       -4.0446706044  MEMB      100             0.0000000000
     13778       100  DOPC      H11Y           27.5732186100      -27.8602770630       -2.6074498006  MEMB      100             0.0000000000
     13779       100  DOPC      C312           27.8885730732      -30.0053001008       -2.2928045604  MEMB      100             0.0000000000
     13780       100  DOPC      H12X           28.5742117490      -29.9628840210       -1.4186580842  MEMB      100             0.0000000000
     13781       100  DOPC      H12Y           28.1857854071      -30.8828876871       -2.9127207929  MEMB      100             0.0000000000
     13782       100  DOPC      C313           26.4566536599      -30.2062618407       -1.7926376895  MEMB      100             0.0000000000
     13783       100  DOPC      H13X           25.7906305305      -30.2443439937       -2.6858911213  MEMB      100             0.0000000000
     13784       100  DOPC      H13Y           26.3516137626      -31.1815707012       -1.2843936515  MEMB      100             0.0000000000
     13785       100  DOPC      C314           25.9668157810      -29.0839286425       -0.8604192621  MEMB      100             0.0000000000
     13786       100  DOPC      H14X           26.4212994587      -28.1127542238       -1.1085993147  MEMB      100             0.0000000000
     13787       100  DOPC      H14Y           24.8925591857      -29.0041960329       -1.0800043087  MEMB      100             0.0000000000
     13788       100  DOPC      C315           26.1909889231      -29.3434425970        0.6315134464  MEMB      100             0.0000000000
     13789       100  DOPC      H15X           27.2038842787      -29.7657682546        0.7315489887  MEMB      100             0.0000000000
     13790       100  DOPC      H15Y           25.5441073126      -30.1760073173        0.9556629414  MEMB      100             0.0000000000
     13791       100  DOPC      C316           26.1368071224      -28.1407342688        1.6079019258  MEMB      100             0.0000000000
     13792       100  DOPC      H16X           25.4366804519      -28.3202809253        2.4439656969  MEMB      100             0.0000000000
     13793       100  DOPC      H16Y           27.1262925845      -28.0950392427        2.1137288327  MEMB      100             0.0000000000
     13794       100  DOPC      C317           25.8211691613      -26.7301679780        1.0920421452  MEMB      100             0.0000000000
     13795       100  DOPC      H17X           26.4304080246      -26.4686679896        0.1984477534  MEMB      100             0.0000000000
     13796       100  DOPC      H17Y           24.7524688465      -26.6403516662        0.7981094349  MEMB      100             0.0000000000
     13797       100  DOPC      C318           26.1257164735      -25.7436595851        2.2237058224  MEMB      100             0.0000000000
     13798       100  DOPC      H18X           25.6625593772      -24.7543098149        2.0430726982  MEMB      100             0.0000000000
     13799       100  DOPC      H18Y           25.7545590979      -26.1336271881        3.1953028799  MEMB      100             0.0000000000
     13800       100  DOPC      H18Z           27.2293338182      -25.6163169786        2.3095835317  MEMB      100             0.0000000000
     13801       101  TIP3      OH2           -17.4354172817      -19.1964719717       26.7360093601  TIP3      1               0.0000000000
     13802       101  TIP3      H1            -17.3304786444      -18.3262664821       27.1561268486  TIP3      1               0.0000000000
     13803       101  TIP3      H2            -18.2067147517      -19.0208205885       26.1674524775  TIP3      1               0.0000000000
     13804       102  TIP3      OH2           -18.4306783453      -20.6226766502       30.0960968492  TIP3      2               0.0000000000
     13805       102  TIP3      H1            -18.4506500865      -20.9843757357       31.0063325876  TIP3      2               0.0000000000
     13806       102  TIP3      H2            -19.3269501553      -20.7758444882       29.7194130408  TIP3      2               0.0000000000
     13807       103  TIP3      OH2           -26.1347386796      -20.3845153327       31.5475281585  TIP3      3               0.0000000000
     13808       103  TIP3      H1            -26.2235185806      -21.1867454954       32.0843968467  TIP3      3               0.0000000000
     13809       103  TIP3      H2            -25.7384529782      -19.7753836474       32.1955205913  TIP3      3               0.0000000000
     13810       104  TIP3      OH2           -15.5099237997      -17.3310998679       28.9024402752  TIP3      4               0.0000000000
     13811       104  TIP3      H1            -15.6910009335      -17.9636335716       29.6170767059  TIP3      4               0.0000000000
     13812       104  TIP3      H2            -15.1492708401      -16.5746381947       29.3982548704  TIP3      4               0.0000000000
     13813       105  TIP3      OH2           -25.6978165386      -15.6869810443       29.9380791613  TIP3      5               0.0000000000
     13814       105  TIP3      H1            -25.9589673119      -16.6339071629       29.9205079020  TIP3      5               0.0000000000
     13815       105  TIP3      H2            -24.7360688611      -15.8324160120       29.8266715586  TIP3      5               0.0000000000
     13816       106  TIP3      OH2           -28.7240274467      -23.0027934170       25.1969124856  TIP3      6               0.0000000000
     13817       106  TIP3      H1            -28.7950605962      -22.0856658603       24.9111086966  TIP3      6               0.0000000000
     13818       106  TIP3      H2            -29.5965196861      -23.1070333923       25.6246944820  TIP3      6               0.0000000000
     13819       107  TIP3      OH2           -28.4993565118      -19.8694353099       28.1976956353  TIP3      7               0.0000000000
     13820       107  TIP3      H1            -27.9235648274      -20.6769120606       28.2350313097  TIP3      7               0.0000000000
     13821       107  TIP3      H2            -27.8771412025      -19.2181557219       27.8298526772  TIP3      7               0.0000000000
     13822       108  TIP3      OH2           -18.0040060451      -11.9372454625       28.8096999527  TIP3      8               0.0000000000
     13823       108  TIP3      H1            -17.1893584281      -12.4186952046       28.5226092266  TIP3      8               0.0000000000
     13824       108  TIP3      H2            -18.4841348925      -12.6573201803       29.2355957200  TIP3      8               0.0000000000
     13825       109  TIP3      OH2           -20.7564588118      -17.4529141696       31.2274245675  TIP3      9               0.0000000000
     13826       109  TIP3      H1            -20.4126246516      -17.5751349668       30.3409980969  TIP3      9               0.0000000000
     13827       109  TIP3      H2            -19.9282504325      -17.2693476111       31.7233759778  TIP3      9               0.0000000000
     13828       110  TIP3      OH2           -11.8817238387      -26.3770262074       31.2080328761  TIP3      10              0.0000000000
     13829       110  TIP3      H1            -11.7782741125      -25.7615605135       31.9677815179  TIP3      10              0.0000000000
     13830       110  TIP3      H2            -11.0660161373      -26.1731804679       30.7083236448  TIP3      10              0.0000000000
     13831       111  TIP3      OH2           -16.9084128562      -23.2309072902       31.1732408498  TIP3      11              0.0000000000
     13832       111  TIP3      H1            -16.5302167360      -24.0435278928       31.5525463115  TIP3      11              0.0000000000
     13833       111  TIP3      H2            -16.8485081407      -23.4360746954       30.2233922624  TIP3      11              0.0000000000
     13834       112  TIP3      OH2           -24.1849499092      -24.8807381571       28.2351774068  TIP3      12              0.0000000000
     13835       112  TIP3      H1            -23.9290401160      -24.1454904762       27.6391149891  TIP3      12              0.0000000000
     13836       112  TIP3      H2            -24.4617065504      -25.5403913565       27.5557163690  TIP3      12              0.0000000000
     13837       113  TIP3      OH2           -16.4693175883      -25.2626127621       26.8392576125  TIP3      13              0.0000000000
     13838       113  TIP3      H1            -16.0366261936      -25.3446397635       27.7230937349  TIP3      13              0.0000000000
     13839       113  TIP3      H2            -15.9239902245      -24.5530914878       26.4684026772  TIP3      13              0.0000000000
     13840       114  TIP3      OH2           -27.0554813497      -22.1671567431       28.5848298541  TIP3      14              0.0000000000
     13841       114  TIP3      H1            -26.7937408660      -22.4906105777       29.4642612883  TIP3      14              0.0000000000
     13842       114  TIP3      H2            -26.6421781268      -22.8281195881       27.9743349803  TIP3      14              0.0000000000
     13843       115  TIP3      OH2           -22.8216091902      -21.1423998386       28.3316891472  TIP3      15              0.0000000000
     13844       115  TIP3      H1            -21.9445095089      -21.5205091483       28.5523941281  TIP3      15              0.0000000000
     13845       115  TIP3      H2            -23.1001474826      -21.7807423348       27.6403826235  TIP3      15              0.0000000000
     13846       116  TIP3      OH2           -11.6094262079      -24.8250211746       33.5151391866  TIP3      16              0.0000000000
     13847       116  TIP3      H1            -11.9685128070      -24.0059230444       33.0919924271  TIP3      16              0.0000000000
     13848       116  TIP3      H2            -11.5054945789      -24.5227426165       34.4251195639  TIP3      16              0.0000000000
     13849       117  TIP3      OH2           -25.1367823228      -26.1842438568       32.3792999178  TIP3      17              0.0000000000
     13850       117  TIP3      H1            -25.5025237350      -25.6644223349       31.6398106980  TIP3      17              0.0000000000
     13851       117  TIP3      H2            -25.7521817995      -25.9233269690       33.1023095962  TIP3      17              0.0000000000
     13852       118  TIP3      OH2           -18.2117777962      -16.4461818657       25.8358444278  TIP3      18              0.0000000000
     13853       118  TIP3      H1            -18.4688414275      -16.2245387528       24.9124861207  TIP3      18              0.0000000000
     13854       118  TIP3      H2            -18.3455041408      -15.5757659458       26.2676380766  TIP3      18              0.0000000000
     13855       119  TIP3      OH2           -23.0393226629      -18.5585459401       32.4186054183  TIP3      19              0.0000000000
     13856       119  TIP3      H1            -23.7244845669      -17.8993968939       32.6708318894  TIP3      19              0.0000000000
     13857       119  TIP3      H2            -22.4123183665      -17.9993935516       31.9100343178  TIP3      19              0.0000000000
     13858       120  TIP3      OH2           -14.6144490136      -25.3044565203       28.8394938717  TIP3      20              0.0000000000
     13859       120  TIP3      H1            -14.4552926336      -26.2075259876       29.1923082496  TIP3      20              0.0000000000
     13860       120  TIP3      H2            -13.9117565704      -24.7769340135       29.2732990395  TIP3      20              0.0000000000
     13861       121  TIP3      OH2           -25.7082229677      -24.0708030116       30.3681631163  TIP3      21              0.0000000000
     13862       121  TIP3      H1            -25.1167541015      -23.4330393498       30.8311355387  TIP3      21              0.0000000000
     13863       121  TIP3      H2            -25.1973117274      -24.2322057578       29.5448947111  TIP3      21              0.0000000000
     13864       122  TIP3      OH2           -24.5547373223      -16.3092395145       33.0269223222  TIP3      22              0.0000000000
     13865       122  TIP3      H1            -24.6962094368      -15.5063248458       32.5051556750  TIP3      22              0.0000000000
     13866       122  TIP3      H2            -25.4396951927      -16.4291149471       33.4296635175  TIP3      22              0.0000000000
     13867       123  TIP3      OH2           -28.0984221731      -16.9627385471       24.2072843827  TIP3      23              0.0000000000
     13868       123  TIP3      H1            -28.5296357316      -16.8128473440       23.3490463620  TIP3      23              0.0000000000
     13869       123  TIP3      H2            -28.0134579527      -16.0813066026       24.5935938293  TIP3      23              0.0000000000
     13870       124  TIP3      OH2           -14.7492473719      -15.3050780335       30.5969678340  TIP3      24              0.0000000000
     13871       124  TIP3      H1            -15.6832489889      -15.0310951063       30.7453980308  TIP3      24              0.0000000000
     13872       124  TIP3      H2            -14.4306050874      -14.4695951953       30.2093620286  TIP3      24              0.0000000000
     13873       125  TIP3      OH2           -14.4043212868      -26.2740896955       32.6034439264  TIP3      25              0.0000000000
     13874       125  TIP3      H1            -15.1646681230      -26.0723786269       32.0229395080  TIP3      25              0.0000000000
     13875       125  TIP3      H2            -13.6980923043      -26.4564467925       31.9523910955  TIP3      25              0.0000000000
     13876       126  TIP3      OH2           -21.4657786280      -28.1804086048       29.3655851235  TIP3      26              0.0000000000
     13877       126  TIP3      H1            -21.3545860352      -28.9355710424       29.9695455657  TIP3      26              0.0000000000
     13878       126  TIP3      H2            -22.2308295608      -27.7277802336       29.7981491006  TIP3      26              0.0000000000
     13879       127  TIP3      OH2           -16.0521923134      -13.5350631779       27.7096788433  TIP3      27              0.0000000000
     13880       127  TIP3      H1            -16.0781952621      -14.1669414239       26.9669426185  TIP3      27              0.0000000000
     13881       127  TIP3      H2            -15.3255105795      -12.9351219762       27.3982272831  TIP3      27              0.0000000000
     13882       128  TIP3      OH2           -15.0625579412      -15.7098681268       25.8255132661  TIP3      28              0.0000000000
     13883       128  TIP3      H1            -15.4414265224      -16.3300670510       25.1865537429  TIP3      28              0.0000000000
     13884       128  TIP3      H2            -15.2446320399      -16.1793080991       26.6545030288  TIP3      28              0.0000000000
     13885       129  TIP3      OH2           -13.6111012741      -16.9668272637       34.6997121437  TIP3      29              0.0000000000
     13886       129  TIP3      H1            -13.3465406914      -17.6920771267       34.0850070275  TIP3      29              0.0000000000
     13887       129  TIP3      H2            -13.5178968045      -16.2002021949       34.1023496288  TIP3      29              0.0000000000
     13888       130  TIP3      OH2           -19.0455589140      -19.8000707142       23.9771329839  TIP3      30              0.0000000000
     13889       130  TIP3      H1            -19.5701347860      -18.9745626620       23.8222402525  TIP3      30              0.0000000000
     13890       130  TIP3      H2            -19.3912160121      -20.3430190534       23.2405407675  TIP3      30              0.0000000000
     13891       131  TIP3      OH2           -18.8670242051      -22.0564789251       22.3599242343  TIP3      31              0.0000000000
     13892       131  TIP3      H1            -18.3164371049      -21.4116905768       21.8929247055  TIP3      31              0.0000000000
     13893       131  TIP3      H2            -19.5265094063      -22.2756687577       21.6784116096  TIP3      31              0.0000000000
     13894       132  TIP3      OH2           -11.6609494849      -20.5395439210       32.2390205215  TIP3      32              0.0000000000
     13895       132  TIP3      H1            -12.3475543582      -19.8461846593       32.1474424957  TIP3      32              0.0000000000
     13896       132  TIP3      H2            -10.9677081539      -20.1544491753       31.6608737537  TIP3      32              0.0000000000
     13897       133  TIP3      OH2           -15.3638054458      -20.3615116366       25.0844685016  TIP3      33              0.0000000000
     13898       133  TIP3      H1            -16.0973992565      -20.0198003009       25.6432064047  TIP3      33              0.0000000000
     13899       133  TIP3      H2            -14.7182309180      -20.6268882804       25.7752465230  TIP3      33              0.0000000000
     13900       134  TIP3      OH2           -15.4049406564      -21.4407364575       34.2580812617  TIP3      34              0.0000000000
     13901       134  TIP3      H1            -15.4440288619      -20.5772783605       34.6959834657  TIP3      34              0.0000000000
     13902       134  TIP3      H2            -16.1625248366      -21.3594856425       33.6544499591  TIP3      34              0.0000000000
     13903       135  TIP3      OH2           -23.9637633397      -19.0549700902       27.2902381354  TIP3      35              0.0000000000
     13904       135  TIP3      H1            -24.1877625752      -19.4286643347       26.4099596605  TIP3      35              0.0000000000
     13905       135  TIP3      H2            -23.5019761312      -19.8164291717       27.7022004415  TIP3      35              0.0000000000
     13906       136  TIP3      OH2           -22.7551243159      -15.8929295686       29.7155323006  TIP3      36              0.0000000000
     13907       136  TIP3      H1            -22.6947228041      -15.9266668961       28.7401767819  TIP3      36              0.0000000000
     13908       136  TIP3      H2            -21.9292017498      -16.2870010944       30.0329786787  TIP3      36              0.0000000000
     13909       137  TIP3      OH2           -23.4630035664      -20.7033957845       30.8177441612  TIP3      37              0.0000000000
     13910       137  TIP3      H1            -23.2419344480      -20.5551050198       29.8728677092  TIP3      37              0.0000000000
     13911       137  TIP3      H2            -23.1254339368      -19.9093962399       31.2682550990  TIP3      37              0.0000000000
     13912       138  TIP3      OH2           -17.1921294890      -14.6727089576       31.4658657851  TIP3      38              0.0000000000
     13913       138  TIP3      H1            -17.6923394239      -14.1197613034       32.0834202826  TIP3      38              0.0000000000
     13914       138  TIP3      H2            -17.3982836044      -15.5601067000       31.8106797736  TIP3      38              0.0000000000
     13915       139  TIP3      OH2           -22.8168715535      -16.0637710284       35.1893325899  TIP3      39              0.0000000000
     13916       139  TIP3      H1            -23.4310505254      -15.4433664600       35.6452574543  TIP3      39              0.0000000000
     13917       139  TIP3      H2            -23.3445306500      -16.2739570996       34.3853811122  TIP3      39              0.0000000000
     13918       140  TIP3      OH2           -16.0911050407      -20.9523722452       22.6339602920  TIP3      40              0.0000000000
     13919       140  TIP3      H1            -15.9100478245      -20.8314313753       23.5970284681  TIP3      40              0.0000000000
     13920       140  TIP3      H2            -16.5427490025      -20.1115023293       22.4823585230  TIP3      40              0.0000000000
     13921       141  TIP3      OH2           -25.8480310910      -19.5055358248       34.2372099108  TIP3      41              0.0000000000
     13922       141  TIP3      H1            -26.0485239030      -18.8083473277       34.8924293765  TIP3      41              0.0000000000
     13923       141  TIP3      H2            -26.6053382113      -20.1251969193       34.3848806291  TIP3      41              0.0000000000
     13924       142  TIP3      OH2           -18.5612398429      -13.8176015163       26.6408760642  TIP3      42              0.0000000000
     13925       142  TIP3      H1            -17.8020092100      -13.3117864007       26.9916919928  TIP3      42              0.0000000000
     13926       142  TIP3      H2            -19.2284756341      -13.1226372631       26.5601045040  TIP3      42              0.0000000000
     13927       143  TIP3      OH2           -24.2580862690      -14.1544931767       36.4281847633  TIP3      43              0.0000000000
     13928       143  TIP3      H1            -24.3587311380      -13.8477883018       35.5047747410  TIP3      43              0.0000000000
     13929       143  TIP3      H2            -25.2072103596      -14.1836702053       36.6772562884  TIP3      43              0.0000000000
     13930       144  TIP3      OH2           -24.9903085772      -19.9769048137       24.7672188848  TIP3      44              0.0000000000
     13931       144  TIP3      H1            -25.4598538787      -19.1704023220       24.5138991322  TIP3      44              0.0000000000
     13932       144  TIP3      H2            -25.3696601546      -20.6513426300       24.2025436809  TIP3      44              0.0000000000
     13933       145  TIP3      OH2           -28.6314446026      -17.6840229112       34.3686095463  TIP3      45              0.0000000000
     13934       145  TIP3      H1            -29.6006172592      -17.5865831950       34.2506887520  TIP3      45              0.0000000000
     13935       145  TIP3      H2            -28.3863561190      -18.3308616328       33.6829761819  TIP3      45              0.0000000000
     13936       146  TIP3      OH2           -28.6703454260      -14.6096029532       29.8163340330  TIP3      46              0.0000000000
     13937       146  TIP3      H1            -27.8057222160      -15.0053463082       30.0369188067  TIP3      46              0.0000000000
     13938       146  TIP3      H2            -28.9582639547      -14.3399070561       30.7065223324  TIP3      46              0.0000000000
     13939       147  TIP3      OH2           -11.0508438700      -14.4391429025       35.9093057637  TIP3      47              0.0000000000
     13940       147  TIP3      H1            -11.0274496630      -15.4107717230       35.9977190247  TIP3      47              0.0000000000
     13941       147  TIP3      H2            -11.9325270589      -14.2511254471       36.3114588032  TIP3      47              0.0000000000
     13942       148  TIP3      OH2           -20.3074204004      -14.8458971701       35.0922756742  TIP3      48              0.0000000000
     13943       148  TIP3      H1            -20.2225891878      -14.0115240706       35.6083341113  TIP3      48              0.0000000000
     13944       148  TIP3      H2            -21.2500256232      -15.1063379209       35.1904493192  TIP3      48              0.0000000000
     13945       149  TIP3      OH2           -19.5837699668      -10.7641717928       24.4876117685  TIP3      49              0.0000000000
     13946       149  TIP3      H1            -19.6803293986      -10.5643225391       23.5226426169  TIP3      49              0.0000000000
     13947       149  TIP3      H2            -19.6042596535       -9.8716576488       24.8649182147  TIP3      49              0.0000000000
     13948       150  TIP3      OH2           -25.5607668807      -12.1273776023       26.6801643144  TIP3      50              0.0000000000
     13949       150  TIP3      H1            -25.4376084560      -12.3283154634       27.6298355213  TIP3      50              0.0000000000
     13950       150  TIP3      H2            -26.1756018057      -12.8553655234       26.4443995768  TIP3      50              0.0000000000
     13951       151  TIP3      OH2           -16.9577624365      -12.0217308977       24.8052973077  TIP3      51              0.0000000000
     13952       151  TIP3      H1            -17.7854461427      -11.5362911232       24.9467628238  TIP3      51              0.0000000000
     13953       151  TIP3      H2            -17.2929840910      -12.7632445634       24.2696018033  TIP3      51              0.0000000000
     13954       152  TIP3      OH2           -14.0721506748      -22.9933920352       36.4507473299  TIP3      52              0.0000000000
     13955       152  TIP3      H1            -14.5528137946      -22.4338015272       35.8102502918  TIP3      52              0.0000000000
     13956       152  TIP3      H2            -14.1617597975      -23.8746171855       36.0264765851  TIP3      52              0.0000000000
     13957       153  TIP3      OH2           -26.6710881830      -15.9795832023       34.8335538766  TIP3      53              0.0000000000
     13958       153  TIP3      H1            -26.2865749562      -16.5136996405       35.5701795052  TIP3      53              0.0000000000
     13959       153  TIP3      H2            -27.4769667867      -16.5293487743       34.6705039024  TIP3      53              0.0000000000
     13960       154  TIP3      OH2           -23.6970797212      -27.2722643401       30.4725647256  TIP3      54              0.0000000000
     13961       154  TIP3      H1            -24.4097650642      -26.9459639205       29.9058980132  TIP3      54              0.0000000000
     13962       154  TIP3      H2            -24.0829594458      -27.0734871462       31.3572406686  TIP3      54              0.0000000000
     13963       155  TIP3      OH2           -19.4349540057      -28.0156720634       34.6311250048  TIP3      55              0.0000000000
     13964       155  TIP3      H1            -18.9423386596      -28.8302967248       34.4464147122  TIP3      55              0.0000000000
     13965       155  TIP3      H2            -20.1921034860      -28.0761935546       34.0237392367  TIP3      55              0.0000000000
     13966       156  TIP3      OH2           -16.4918057848      -24.2613266544       34.4496011397  TIP3      56              0.0000000000
     13967       156  TIP3      H1            -17.0847907325      -24.5025144451       35.2133778988  TIP3      56              0.0000000000
     13968       156  TIP3      H2            -16.7240763528      -23.3322757247       34.3242020192  TIP3      56              0.0000000000
     13969       157  TIP3      OH2           -19.6064002525      -25.8149245795       21.7563447845  TIP3      57              0.0000000000
     13970       157  TIP3      H1            -20.1263516616      -26.2458254760       22.4592518826  TIP3      57              0.0000000000
     13971       157  TIP3      H2            -20.2844112350      -25.7148221912       21.0689232870  TIP3      57              0.0000000000
     13972       158  TIP3      OH2           -23.6779780425      -23.0720897530       31.9567676913  TIP3      58              0.0000000000
     13973       158  TIP3      H1            -24.0749275637      -22.7290263282       32.7931995803  TIP3      58              0.0000000000
     13974       158  TIP3      H2            -23.6301712804      -22.2208453482       31.4506211968  TIP3      58              0.0000000000
     13975       159  TIP3      OH2           -23.8033075388      -22.8627612708       26.3387566737  TIP3      59              0.0000000000
     13976       159  TIP3      H1            -24.7828256316      -22.9335160213       26.3163758086  TIP3      59              0.0000000000
     13977       159  TIP3      H2            -23.5269822409      -23.0906218195       25.4267098275  TIP3      59              0.0000000000
     13978       160  TIP3      OH2           -18.1745221704      -22.4255966610       25.0469559905  TIP3      60              0.0000000000
     13979       160  TIP3      H1            -18.4896659208      -21.4984353151       25.0362312854  TIP3      60              0.0000000000
     13980       160  TIP3      H2            -18.2103666938      -22.6054745024       24.0834567562  TIP3      60              0.0000000000
     13981       161  TIP3      OH2           -19.6541561381      -21.8094311608       37.0224543437  TIP3      61              0.0000000000
     13982       161  TIP3      H1            -19.9216762352      -22.7258271252       37.2633710078  TIP3      61              0.0000000000
     13983       161  TIP3      H2            -18.7112781005      -21.8386865388       37.2614119609  TIP3      61              0.0000000000
     13984       162  TIP3      OH2           -17.2794739846      -22.9781813237       28.1564239200  TIP3      62              0.0000000000
     13985       162  TIP3      H1            -17.5197707056      -22.1337258990       27.7561388446  TIP3      62              0.0000000000
     13986       162  TIP3      H2            -17.2473959715      -23.5429057679       27.3664671444  TIP3      62              0.0000000000
     13987       163  TIP3      OH2           -26.8318555844      -22.9121446352       33.0958414597  TIP3      63              0.0000000000
     13988       163  TIP3      H1            -26.3048780110      -22.5237261650       33.8077719526  TIP3      63              0.0000000000
     13989       163  TIP3      H2            -26.7333663594      -23.8614104898       33.3073305758  TIP3      63              0.0000000000
     13990       164  TIP3      OH2           -29.0267387911      -25.5768071713       27.5141548227  TIP3      64              0.0000000000
     13991       164  TIP3      H1            -28.4962312939      -25.6654682740       28.3349494313  TIP3      64              0.0000000000
     13992       164  TIP3      H2            -28.3314729425      -25.5360012820       26.8447891003  TIP3      64              0.0000000000
     13993       165  TIP3      OH2           -28.0941438085      -24.0787787048       22.8555114228  TIP3      65              0.0000000000
     13994       165  TIP3      H1            -27.6734383335      -24.9289562743       23.0492246160  TIP3      65              0.0000000000
     13995       165  TIP3      H2            -28.2616570683      -23.7519682749       23.7670827783  TIP3      65              0.0000000000
     13996       166  TIP3      OH2           -18.1930754747      -21.5082169116       32.8301477272  TIP3      66              0.0000000000
     13997       166  TIP3      H1            -17.6865543654      -22.2021978086       32.3453229756  TIP3      66              0.0000000000
     13998       166  TIP3      H2            -18.7900147195      -22.0280890626       33.4202118405  TIP3      66              0.0000000000
     13999       167  TIP3      OH2           -21.3274630317      -25.1856727399       27.6171722506  TIP3      67              0.0000000000
     14000       167  TIP3      H1            -22.2543200797      -25.2904664755       27.8971904688  TIP3      67              0.0000000000
     14001       167  TIP3      H2            -20.8574546413      -25.3101201052       28.4505697600  TIP3      67              0.0000000000
     14002       168  TIP3      OH2           -26.4158136855      -23.6604376026       26.5256779864  TIP3      68              0.0000000000
     14003       168  TIP3      H1            -27.2941126908      -23.5731263924       26.0955556243  TIP3      68              0.0000000000
     14004       168  TIP3      H2            -26.1105608281      -24.5356965470       26.2381406539  TIP3      68              0.0000000000
     14005       169  TIP3      OH2           -22.7651320993      -23.4569429295       23.6903818124  TIP3      69              0.0000000000
     14006       169  TIP3      H1            -21.9733192288      -23.6240764536       24.2542550368  TIP3      69              0.0000000000
     14007       169  TIP3      H2            -22.3305318556      -23.1975882285       22.8598921683  TIP3      69              0.0000000000
     14008       170  TIP3      OH2           -16.7280057735      -26.3026437612       30.9953173093  TIP3      70              0.0000000000
     14009       170  TIP3      H1            -17.5811978659      -26.1156262206       31.4242414804  TIP3      70              0.0000000000
     14010       170  TIP3      H2            -16.9619144203      -26.6926365747       30.1320099779  TIP3      70              0.0000000000
     14011       171  TIP3      OH2           -13.8974138410      -10.2152114140       37.4793346876  TIP3      71              0.0000000000
     14012       171  TIP3      H1            -13.4678652261      -10.0657184415       36.6131624354  TIP3      71              0.0000000000
     14013       171  TIP3      H2            -13.2285648504       -9.7964196308       38.0493277581  TIP3      71              0.0000000000
     14014       172  TIP3      OH2           -26.0973184214      -17.7962455485       36.6314358370  TIP3      72              0.0000000000
     14015       172  TIP3      H1            -25.4598534847      -17.8899082080       37.3677705358  TIP3      72              0.0000000000
     14016       172  TIP3      H2            -26.9558683366      -18.0050775198       37.0781061259  TIP3      72              0.0000000000
     14017       173  TIP3      OH2           -20.3917675520      -22.2853677354       29.0782132603  TIP3      73              0.0000000000
     14018       173  TIP3      H1            -19.4858501945      -22.6118912556       28.9568956998  TIP3      73              0.0000000000
     14019       173  TIP3      H2            -20.6990694343      -22.8902763220       29.7591242818  TIP3      73              0.0000000000
     14020       174  TIP3      OH2           -25.0420635409      -26.2148025864       26.0982946574  TIP3      74              0.0000000000
     14021       174  TIP3      H1            -25.2295602341      -27.1704368728       26.2483167494  TIP3      74              0.0000000000
     14022       174  TIP3      H2            -24.9844799195      -26.1954154947       25.1310875708  TIP3      74              0.0000000000
     14023       175  TIP3      OH2           -21.3361091671      -24.2894773056       31.4813348615  TIP3      75              0.0000000000
     14024       175  TIP3      H1            -22.2030335560      -23.8882470315       31.7119869587  TIP3      75              0.0000000000
     14025       175  TIP3      H2            -20.7500771855      -23.8314516014       32.0946678672  TIP3      75              0.0000000000
     14026       176  TIP3      OH2           -20.8223845007      -17.7587515632       23.8853307215  TIP3      76              0.0000000000
     14027       176  TIP3      H1            -21.6043194310      -18.0904274642       23.3883447967  TIP3      76              0.0000000000
     14028       176  TIP3      H2            -21.1901996029      -17.5194889339       24.7626081552  TIP3      76              0.0000000000
     14029       177  TIP3      OH2           -13.4048217596      -18.5228792778       32.5382199600  TIP3      77              0.0000000000
     14030       177  TIP3      H1            -12.9396401220      -18.0493240739       31.8092316450  TIP3      77              0.0000000000
     14031       177  TIP3      H2            -14.3112761696      -18.5273403515       32.1918496653  TIP3      77              0.0000000000
     14032       178  TIP3      OH2           -19.9764919378      -17.6428830517       35.0672479519  TIP3      78              0.0000000000
     14033       178  TIP3      H1            -20.5412856329      -17.8622877774       35.8233986085  TIP3      78              0.0000000000
     14034       178  TIP3      H2            -19.9443528183      -16.6728060489       35.1348692426  TIP3      78              0.0000000000
     14035       179  TIP3      OH2           -16.0131116898      -23.6800414742       23.2281413506  TIP3      79              0.0000000000
     14036       179  TIP3      H1            -15.6151853773      -23.4772352960       24.0897871207  TIP3      79              0.0000000000
     14037       179  TIP3      H2            -16.2023299237      -22.7767885661       22.8964308294  TIP3      79              0.0000000000
     14038       180  TIP3      OH2           -25.6186834329      -18.4115441506       29.4851831484  TIP3      80              0.0000000000
     14039       180  TIP3      H1            -25.1042642093      -18.6222265549       28.6846870341  TIP3      80              0.0000000000
     14040       180  TIP3      H2            -25.6044664021      -19.2448021406       29.9979524079  TIP3      80              0.0000000000
     14041       181  TIP3      OH2           -18.8777860416      -15.9694456544       23.0818957061  TIP3      81              0.0000000000
     14042       181  TIP3      H1            -19.3502900781      -15.1147110913       23.1067040160  TIP3      81              0.0000000000
     14043       181  TIP3      H2            -19.6132181024      -16.6202865755       23.0342999112  TIP3      81              0.0000000000
     14044       182  TIP3      OH2           -28.1939470403      -20.8350503812       34.5236376505  TIP3      82              0.0000000000
     14045       182  TIP3      H1            -28.1849100548      -20.5561321471       35.4563982877  TIP3      82              0.0000000000
     14046       182  TIP3      H2            -29.1449010581      -21.0874193600       34.4642774654  TIP3      82              0.0000000000
     14047       183  TIP3      OH2           -22.3623439099      -20.6227683295       36.5227108629  TIP3      83              0.0000000000
     14048       183  TIP3      H1            -22.2012001925      -20.9601931858       35.6276205088  TIP3      83              0.0000000000
     14049       183  TIP3      H2            -21.5117377878      -20.8301431902       36.9456610237  TIP3      83              0.0000000000
     14050       184  TIP3      OH2           -16.8303257043      -15.4260158672       35.2563774624  TIP3      84              0.0000000000
     14051       184  TIP3      H1            -17.6146671843      -15.2405653808       34.7149043867  TIP3      84              0.0000000000
     14052       184  TIP3      H2            -17.1147602400      -15.0568566452       36.1232807544  TIP3      84              0.0000000000
     14053       185  TIP3      OH2           -12.0507358300      -22.9768236242       23.6462297297  TIP3      85              0.0000000000
     14054       185  TIP3      H1            -11.3457554114      -23.4217633278       23.1480810791  TIP3      85              0.0000000000
     14055       185  TIP3      H2            -11.7238314996      -22.0567164217       23.6227391692  TIP3      85              0.0000000000
     14056       186  TIP3      OH2           -11.1483488858      -17.2841796134       35.8620495141  TIP3      86              0.0000000000
     14057       186  TIP3      H1            -12.0613580477      -17.0670223715       35.5571842740  TIP3      86              0.0000000000
     14058       186  TIP3      H2            -10.6597727057      -17.3755715321       35.0098879445  TIP3      86              0.0000000000
     14059       187  TIP3      OH2           -13.0326148914      -14.7351502657       23.3868191147  TIP3      87              0.0000000000
     14060       187  TIP3      H1            -13.4510075720      -15.2208916971       24.1176387728  TIP3      87              0.0000000000
     14061       187  TIP3      H2            -13.7697827086      -14.5744928907       22.7770897938  TIP3      87              0.0000000000
     14062       188  TIP3      OH2           -15.9879504186      -19.3252939800       30.7809420052  TIP3      88              0.0000000000
     14063       188  TIP3      H1            -16.8650044181      -19.5870719307       30.4476028848  TIP3      88              0.0000000000
     14064       188  TIP3      H2            -15.4419440458      -19.9824798915       30.3218621509  TIP3      88              0.0000000000
     14065       189  TIP3      OH2           -23.2398318678      -14.9575640374       27.0821519822  TIP3      89              0.0000000000
     14066       189  TIP3      H1            -22.7569024777      -14.1711059352       26.7500283003  TIP3      89              0.0000000000
     14067       189  TIP3      H2            -24.1178773558      -14.8028406954       26.6940305436  TIP3      89              0.0000000000
     14068       190  TIP3      OH2           -21.8401679141      -17.1615642703       26.5711689926  TIP3      90              0.0000000000
     14069       190  TIP3      H1            -22.4049932058      -16.3627106518       26.5851578828  TIP3      90              0.0000000000
     14070       190  TIP3      H2            -22.4321087763      -17.8660815814       26.8812058259  TIP3      90              0.0000000000
     14071       191  TIP3      OH2           -21.6139358229      -13.0529347057       33.4742330392  TIP3      91              0.0000000000
     14072       191  TIP3      H1            -20.9205400960      -12.5162993671       33.0548814137  TIP3      91              0.0000000000
     14073       191  TIP3      H2            -21.0588910425      -13.6102120085       34.0524964079  TIP3      91              0.0000000000
     14074       192  TIP3      OH2           -22.7206447370      -12.5396172046       26.1513008219  TIP3      92              0.0000000000
     14075       192  TIP3      H1            -23.6572280538      -12.3473934132       26.3277183278  TIP3      92              0.0000000000
     14076       192  TIP3      H2            -22.3521173847      -11.6488343231       26.3377811059  TIP3      92              0.0000000000
     14077       193  TIP3      OH2           -18.3029100080      -17.2571613763       32.3536716522  TIP3      93              0.0000000000
     14078       193  TIP3      H1            -18.5511733304      -17.6542631228       33.2128087586  TIP3      93              0.0000000000
     14079       193  TIP3      H2            -17.6649581479      -17.9006800243       32.0036950708  TIP3      93              0.0000000000
     14080       194  TIP3      OH2           -15.4679907812      -16.5036702162       21.1922388433  TIP3      94              0.0000000000
     14081       194  TIP3      H1            -15.3825837663      -16.6771555931       22.1406346719  TIP3      94              0.0000000000
     14082       194  TIP3      H2            -16.4215988560      -16.5403141596       21.0617086099  TIP3      94              0.0000000000
     14083       195  TIP3      OH2           -15.0679106175      -12.8918298011       34.8940120570  TIP3      95              0.0000000000
     14084       195  TIP3      H1            -15.9352665280      -13.3435438122       34.8498280925  TIP3      95              0.0000000000
     14085       195  TIP3      H2            -15.1480884839      -12.2455263956       34.1555911500  TIP3      95              0.0000000000
     14086       196  TIP3      OH2           -26.8596300590      -25.4306623902       34.3373736701  TIP3      96              0.0000000000
     14087       196  TIP3      H1            -27.5751627539      -25.0093637222       34.8478149021  TIP3      96              0.0000000000
     14088       196  TIP3      H2            -26.7831043931      -26.2920056653       34.7972908913  TIP3      96              0.0000000000
     14089       197  TIP3      OH2           -14.8255754459      -17.8177091502       23.6891804162  TIP3      97              0.0000000000
     14090       197  TIP3      H1            -14.9860347669      -18.7406831424       23.9705724151  TIP3      97              0.0000000000
     14091       197  TIP3      H2            -13.8507035906      -17.7599050525       23.7589041671  TIP3      97              0.0000000000
     14092       198  TIP3      OH2           -27.2684687276      -13.5376358046       32.5703539991  TIP3      98              0.0000000000
     14093       198  TIP3      H1            -26.7508614469      -14.2318315594       33.0050191045  TIP3      98              0.0000000000
     14094       198  TIP3      H2            -26.9095736134      -12.7632338065       33.0456057483  TIP3      98              0.0000000000
     14095       199  TIP3      OH2           -18.3849073803      -25.7712540256       33.2991346629  TIP3      99              0.0000000000
     14096       199  TIP3      H1            -17.5156768423      -25.5239541204       33.6748806948  TIP3      99              0.0000000000
     14097       199  TIP3      H2            -18.6900587997      -26.4419112668       33.9399296089  TIP3      99              0.0000000000
     14098       200  TIP3      OH2           -17.3752327274      -26.4203675010       24.6459131951  TIP3      100             0.0000000000
     14099       200  TIP3      H1            -17.6587789090      -25.6494905784       24.1347301043  TIP3      100             0.0000000000
     14100       200  TIP3      H2            -16.9429848570      -26.0079385648       25.4305094127  TIP3      100             0.0000000000
     14101       201  TIP3      OH2           -19.5253583936      -13.1700186086       22.7217398299  TIP3      101             0.0000000000
     14102       201  TIP3      H1            -20.3923399462      -13.0616719068       23.1673353719  TIP3      101             0.0000000000
     14103       201  TIP3      H2            -19.8173242803      -13.0383868979       21.7949681403  TIP3      101             0.0000000000
     14104       202  TIP3      OH2           -20.5716969762      -24.0087155694       25.2060003481  TIP3      102             0.0000000000
     14105       202  TIP3      H1            -19.7813750432      -23.4551226459       25.3640392098  TIP3      102             0.0000000000
     14106       202  TIP3      H2            -20.7344363301      -24.4509835080       26.0619759050  TIP3      102             0.0000000000
     14107       203  TIP3      OH2           -19.5589322674      -23.1030319199       34.5191843427  TIP3      103             0.0000000000
     14108       203  TIP3      H1            -19.6366964156      -22.9296808056       35.4806755869  TIP3      103             0.0000000000
     14109       203  TIP3      H2            -19.3449741455      -24.0524940536       34.4570117514  TIP3      103             0.0000000000
     14110       204  TIP3      OH2           -19.5614063907      -27.0981228823       26.1196623441  TIP3      104             0.0000000000
     14111       204  TIP3      H1            -19.2982873291      -26.8296479949       27.0217201798  TIP3      104             0.0000000000
     14112       204  TIP3      H2            -18.7743611971      -26.7833677269       25.6133165863  TIP3      104             0.0000000000
     14113       205  TIP3      OH2           -22.1182624258      -12.6953775929       23.3526083825  TIP3      105             0.0000000000
     14114       205  TIP3      H1            -21.8891109312      -11.7733035759       23.1752754833  TIP3      105             0.0000000000
     14115       205  TIP3      H2            -22.4818595089      -12.6932825164       24.2520479533  TIP3      105             0.0000000000
     14116       206  TIP3      OH2           -24.7926286716      -25.8511871590       23.3161247923  TIP3      106             0.0000000000
     14117       206  TIP3      H1            -24.3366805684      -25.0046581693       23.4517073351  TIP3      106             0.0000000000
     14118       206  TIP3      H2            -24.0771266561      -26.3436579849       22.8853647696  TIP3      106             0.0000000000
     14119       207  TIP3      OH2           -14.0043154393      -25.4267180226       35.2690478906  TIP3      107             0.0000000000
     14120       207  TIP3      H1            -14.9408433252      -25.3149544496       35.0243818443  TIP3      107             0.0000000000
     14121       207  TIP3      H2            -13.6559202811      -25.6768928678       34.3893191684  TIP3      107             0.0000000000
     14122       208  TIP3      OH2           -14.9996059279      -21.7616111413       28.9438678985  TIP3      108             0.0000000000
     14123       208  TIP3      H1            -15.7849350502      -22.3350524799       28.8806244496  TIP3      108             0.0000000000
     14124       208  TIP3      H2            -14.4359370032      -22.2625322086       29.5661595525  TIP3      108             0.0000000000
     14125       209  TIP3      OH2           -14.2437433548      -12.5825346508       30.6574318312  TIP3      109             0.0000000000
     14126       209  TIP3      H1            -14.3726005963      -12.0521057117       29.8546048430  TIP3      109             0.0000000000
     14127       209  TIP3      H2            -13.2774987636      -12.5020819103       30.8012016923  TIP3      109             0.0000000000
     14128       210  TIP3      OH2           -26.5926697630      -27.9941554759       29.4532343146  TIP3      110             0.0000000000
     14129       210  TIP3      H1            -26.2482194565      -28.2241713964       28.5608220775  TIP3      110             0.0000000000
     14130       210  TIP3      H2            -26.7187880945      -28.9103033966       29.8057154747  TIP3      110             0.0000000000
     14131       211  TIP3      OH2           -27.2559200126      -14.2256108436       26.0556515438  TIP3      111             0.0000000000
     14132       211  TIP3      H1            -28.1296345078      -14.5487652083       26.3382310116  TIP3      111             0.0000000000
     14133       211  TIP3      H2            -27.4699674294      -13.8457304152       25.1764496933  TIP3      111             0.0000000000
     14134       212  TIP3      OH2           -28.0377990681      -12.0000331397       37.5769445119  TIP3      112             0.0000000000
     14135       212  TIP3      H1            -27.7000824499      -11.8358642226       38.4766088692  TIP3      112             0.0000000000
     14136       212  TIP3      H2            -27.6978254035      -12.9111210121       37.4342028605  TIP3      112             0.0000000000
     14137       213  TIP3      OH2           -23.6212823451      -12.7831229613       38.8961604735  TIP3      113             0.0000000000
     14138       213  TIP3      H1            -22.6831858245      -12.9999163830       39.0108601321  TIP3      113             0.0000000000
     14139       213  TIP3      H2            -23.8744194431      -13.4286909868       38.2144337656  TIP3      113             0.0000000000
     14140       214  TIP3      OH2           -20.1461446263      -13.6955107421       20.0382807134  TIP3      114             0.0000000000
     14141       214  TIP3      H1            -20.5118521633      -14.4393356571       19.5275904222  TIP3      114             0.0000000000
     14142       214  TIP3      H2            -19.3160333199      -14.0862294457       20.3460751678  TIP3      114             0.0000000000
     14143       215  TIP3      OH2           -17.4438160881      -14.2049563365       37.4957706522  TIP3      115             0.0000000000
     14144       215  TIP3      H1            -17.6910875254      -15.0799276472       37.8958260732  TIP3      115             0.0000000000
     14145       215  TIP3      H2            -16.5350410859      -14.0960647816       37.8489427069  TIP3      115             0.0000000000
     14146       216  TIP3      OH2           -28.4245128040      -18.0764498622       37.9940535568  TIP3      116             0.0000000000
     14147       216  TIP3      H1            -28.3181981738      -19.0450835701       37.9426060280  TIP3      116             0.0000000000
     14148       216  TIP3      H2            -29.4006862629      -18.0108802517       38.0379796100  TIP3      116             0.0000000000
     14149       217  TIP3      OH2           -21.9348681203      -17.9762337407       36.9049892714  TIP3      117             0.0000000000
     14150       217  TIP3      H1            -22.1615081889      -17.3076466909       36.2136523053  TIP3      117             0.0000000000
     14151       217  TIP3      H2            -22.0952381052      -18.8452473664       36.4656743435  TIP3      117             0.0000000000
     14152       218  TIP3      OH2           -16.1124836375      -18.0091681329       35.0015218574  TIP3      118             0.0000000000
     14153       218  TIP3      H1            -15.2484249911      -17.5388259272       34.9964760105  TIP3      118             0.0000000000
     14154       218  TIP3      H2            -16.6666568425      -17.2193492344       35.1498193831  TIP3      118             0.0000000000
     14155       219  TIP3      OH2           -27.3713772095      -20.4581404476       37.4197261566  TIP3      119             0.0000000000
     14156       219  TIP3      H1            -27.4106299703      -21.2838441041       37.9527352932  TIP3      119             0.0000000000
     14157       219  TIP3      H2            -26.6595087179      -20.0147157050       37.9193775655  TIP3      119             0.0000000000
     14158       220  TIP3      OH2           -22.6989251214      -19.4770639085       22.8301276393  TIP3      120             0.0000000000
     14159       220  TIP3      H1            -23.4627385929      -19.7579717638       23.3453963394  TIP3      120             0.0000000000
     14160       220  TIP3      H2            -22.7142602218      -19.9614420113       21.9923752197  TIP3      120             0.0000000000
     14161       221  TIP3      OH2           -24.2088382129      -21.7311491477       34.1434147461  TIP3      121             0.0000000000
     14162       221  TIP3      H1            -24.8025729925      -20.9599404482       34.2826213100  TIP3      121             0.0000000000
     14163       221  TIP3      H2            -23.3971523187      -21.2446559928       33.8797336717  TIP3      121             0.0000000000
     14164       222  TIP3      OH2           -18.1318004317      -18.9904340759       38.3091622342  TIP3      122             0.0000000000
     14165       222  TIP3      H1            -17.6412977068      -19.2940878777       37.5292459213  TIP3      122             0.0000000000
     14166       222  TIP3      H2            -18.7327444095      -19.7176119535       38.5167931410  TIP3      122             0.0000000000
     14167       223  TIP3      OH2           -22.7973722339      -23.8777983118       35.5946241097  TIP3      123             0.0000000000
     14168       223  TIP3      H1            -22.5822113964      -24.5632670827       34.9348921130  TIP3      123             0.0000000000
     14169       223  TIP3      H2            -22.9788909344      -23.1117962353       35.0200616738  TIP3      123             0.0000000000
     14170       224  TIP3      OH2           -22.2119678252      -25.9116794285       33.5027395580  TIP3      124             0.0000000000
     14171       224  TIP3      H1            -21.7968979074      -25.5848516345       32.6754361672  TIP3      124             0.0000000000
     14172       224  TIP3      H2            -23.1663876155      -25.7990765812       33.3315707889  TIP3      124             0.0000000000
     14173       225  TIP3      OH2           -21.6195714911      -20.4851911842       33.6815931483  TIP3      125             0.0000000000
     14174       225  TIP3      H1            -20.6881881957      -20.3340002099       33.4726588172  TIP3      125             0.0000000000
     14175       225  TIP3      H2            -22.0164521781      -19.6310042847       33.3902133499  TIP3      125             0.0000000000
     14176       226  TIP3      OH2           -17.1295104048      -22.4145307380       38.9836507770  TIP3      126             0.0000000000
     14177       226  TIP3      H1            -16.9867702722      -23.3133562772       39.3463711064  TIP3      126             0.0000000000
     14178       226  TIP3      H2            -16.2235034054      -22.1929511290       38.7175901418  TIP3      126             0.0000000000
     14179       227  TIP3      OH2           -15.1684932122      -19.7447836896       36.8584616179  TIP3      127             0.0000000000
     14180       227  TIP3      H1            -15.5974546350      -19.1362516759       36.2238046257  TIP3      127             0.0000000000
     14181       227  TIP3      H2            -14.2271289823      -19.7445908507       36.5607508601  TIP3      127             0.0000000000
     14182       228  TIP3      OH2           -24.5898551767      -23.5394053863       37.9420353797  TIP3      128             0.0000000000
     14183       228  TIP3      H1            -25.3796318918      -24.0678539101       37.6682336491  TIP3      128             0.0000000000
     14184       228  TIP3      H2            -24.1031174511      -23.5717920052       37.0976208579  TIP3      128             0.0000000000
     14185       229  TIP3      OH2           -22.2804101114      -28.6269431421       33.5746973801  TIP3      129             0.0000000000
     14186       229  TIP3      H1            -22.1157645689      -27.6770704742       33.7824453002  TIP3      129             0.0000000000
     14187       229  TIP3      H2            -22.9902430156      -28.5325857436       32.9304027202  TIP3      129             0.0000000000
     14188       230  TIP3      OH2           -20.7617779480      -24.3185147709       37.4608363266  TIP3      130             0.0000000000
     14189       230  TIP3      H1            -21.3170332354      -24.7375192782       38.1551745385  TIP3      130             0.0000000000
     14190       230  TIP3      H2            -21.3998871956      -24.3136467698       36.7269344913  TIP3      130             0.0000000000
     14191       231  TIP3      OH2           -18.2105209288      -24.7537161741       36.6498092089  TIP3      131             0.0000000000
     14192       231  TIP3      H1            -19.0579485314      -24.7011942929       37.1313237416  TIP3      131             0.0000000000
     14193       231  TIP3      H2            -17.7626822759      -25.4082006355       37.2300361041  TIP3      131             0.0000000000
     14194       232  TIP3      OH2           -16.4802257886      -26.1941821356       38.3501725081  TIP3      132             0.0000000000
     14195       232  TIP3      H1            -16.3684615452      -27.1674870629       38.3275897454  TIP3      132             0.0000000000
     14196       232  TIP3      H2            -16.7130008881      -26.0421824876       39.2878171571  TIP3      132             0.0000000000
     14197       233  TIP3      OH2           -26.7060811682      -25.1129308330       37.2987757022  TIP3      133             0.0000000000
     14198       233  TIP3      H1            -26.6285549214      -25.8905345629       36.7265825699  TIP3      133             0.0000000000
     14199       233  TIP3      H2            -26.8688905374      -25.5741017817       38.1563645583  TIP3      133             0.0000000000
     14200       234  TIP3      OH2           -22.4529132841      -28.8311734456       36.2414261297  TIP3      134             0.0000000000
     14201       234  TIP3      H1            -22.0884284930      -29.7062577583       36.4725839489  TIP3      134             0.0000000000
     14202       234  TIP3      H2            -22.2847207958      -28.8060739726       35.2769799566  TIP3      134             0.0000000000
     14203       235  TIP3      OH2           -21.2413051889      -27.4506563408       38.2971456942  TIP3      135             0.0000000000
     14204       235  TIP3      H1            -21.6288739498      -27.9646125017       37.5669277907  TIP3      135             0.0000000000
     14205       235  TIP3      H2            -21.9187695560      -26.7622957855       38.4728650579  TIP3      135             0.0000000000
     14206       236  TIP3      OH2           -28.4257367342      -16.0876605152       21.3874183558  TIP3      136             0.0000000000
     14207       236  TIP3      H1            -27.9054627673      -15.3240802626       21.6730400045  TIP3      136             0.0000000000
     14208       236  TIP3      H2            -27.7098399296      -16.5319765648       20.8798773453  TIP3      136             0.0000000000
     14209       237  TIP3      OH2            29.0386690983      -10.9377258778       25.6293278705  TIP3      137             0.0000000000
     14210       237  TIP3      H1             28.1451027712      -10.8353965659       26.0387926795  TIP3      137             0.0000000000
     14211       237  TIP3      H2             29.5918267375      -10.8787161126       26.4305642835  TIP3      137             0.0000000000
     14212       238  TIP3      OH2           -28.5076034316      -12.1778568455       27.8059921755  TIP3      138             0.0000000000
     14213       238  TIP3      H1            -29.0687653004      -12.9673693396       27.9232142699  TIP3      138             0.0000000000
     14214       238  TIP3      H2            -28.0386426421      -12.1520455416       28.6614224227  TIP3      138             0.0000000000
     14215       239  TIP3      OH2           -11.4260767809      -12.0727536420       31.0111124970  TIP3      139             0.0000000000
     14216       239  TIP3      H1            -11.1014114804      -11.8338000549       31.8912802585  TIP3      139             0.0000000000
     14217       239  TIP3      H2            -10.9073729836      -11.4795323228       30.4553737170  TIP3      139             0.0000000000
     14218       240  TIP3      OH2           -11.8885766156      -12.3235767853       33.8541168647  TIP3      140             0.0000000000
     14219       240  TIP3      H1            -12.2813882607      -12.9785976757       33.2346021966  TIP3      140             0.0000000000
     14220       240  TIP3      H2            -11.5689498738      -12.9201004411       34.5565685603  TIP3      140             0.0000000000
     14221       241  TIP3      OH2           -12.7767593424      -16.3230199848       38.6151182055  TIP3      141             0.0000000000
     14222       241  TIP3      H1            -13.5325434911      -16.3678796653       39.2453703253  TIP3      141             0.0000000000
     14223       241  TIP3      H2            -12.3708330120      -15.4543169856       38.8229366822  TIP3      141             0.0000000000
     14224       242  TIP3      OH2           -11.9792394290      -18.3313430882       24.2127600019  TIP3      142             0.0000000000
     14225       242  TIP3      H1            -11.2293332138      -17.6865829003       24.2180448185  TIP3      142             0.0000000000
     14226       242  TIP3      H2            -11.8968550188      -18.7271655320       25.1179086822  TIP3      142             0.0000000000
     14227       243  TIP3      OH2           -11.4590645292      -19.5761396354       26.5653214571  TIP3      143             0.0000000000
     14228       243  TIP3      H1            -12.2105662474      -20.1444049483       26.8384338918  TIP3      143             0.0000000000
     14229       243  TIP3      H2            -10.7422888294      -19.8320326744       27.1931830989  TIP3      143             0.0000000000
     14230       244  TIP3      OH2           -11.8831376756      -17.3730861918       30.7081480869  TIP3      144             0.0000000000
     14231       244  TIP3      H1            -11.2174720746      -18.0641131859       30.4942995528  TIP3      144             0.0000000000
     14232       244  TIP3      H2            -11.3971926047      -16.5482739387       30.5015759134  TIP3      144             0.0000000000
     14233       245  TIP3      OH2           -13.2889495567      -14.5374385191       33.1860522712  TIP3      145             0.0000000000
     14234       245  TIP3      H1            -13.8567415557      -14.0137799347       33.7837015938  TIP3      145             0.0000000000
     14235       245  TIP3      H2            -13.8846481957      -14.7803036289       32.4499822166  TIP3      145             0.0000000000
     14236       246  TIP3      OH2           -11.3458362818      -20.4586225140       22.7514249814  TIP3      146             0.0000000000
     14237       246  TIP3      H1            -12.1908863832      -20.3766035127       22.3037127170  TIP3      146             0.0000000000
     14238       246  TIP3      H2            -11.3888396306      -19.6283074372       23.2867763929  TIP3      146             0.0000000000
     14239       247  TIP3      OH2           -13.4004265855      -21.4833585360       26.7365980493  TIP3      147             0.0000000000
     14240       247  TIP3      H1            -13.5680036603      -22.3902054701       26.4078380996  TIP3      147             0.0000000000
     14241       247  TIP3      H2            -13.8519816562      -21.5114842717       27.6127968455  TIP3      147             0.0000000000
     14242       248  TIP3      OH2           -28.6815703196      -19.9177447662       30.8971653754  TIP3      148             0.0000000000
     14243       248  TIP3      H1            -28.8013783869      -19.9582473770       29.9250570968  TIP3      148             0.0000000000
     14244       248  TIP3      H2            -27.7145852045      -20.0846352452       30.9675050066  TIP3      148             0.0000000000
     14245       249  TIP3      OH2           -12.5592837874      -19.6769241244       36.2022239697  TIP3      149             0.0000000000
     14246       249  TIP3      H1            -12.0685148309      -20.4212237355       36.6280956589  TIP3      149             0.0000000000
     14247       249  TIP3      H2            -11.8425964472      -19.1215874710       35.8399218512  TIP3      149             0.0000000000
     14248       250  TIP3      OH2           -11.6633971867      -22.0367608249       37.2441463332  TIP3      150             0.0000000000
     14249       250  TIP3      H1            -12.4873227094      -22.4861596183       36.9490365274  TIP3      150             0.0000000000
     14250       250  TIP3      H2            -10.9678793429      -22.7115238862       37.0594132670  TIP3      150             0.0000000000
     14251       251  TIP3      OH2           -13.9920595226      -23.7425641073       25.4234071527  TIP3      151             0.0000000000
     14252       251  TIP3      H1            -13.8308795963      -24.6850300183       25.3150419718  TIP3      151             0.0000000000
     14253       251  TIP3      H2            -13.2990775819      -23.3586817778       24.8305610570  TIP3      151             0.0000000000
     14254       252  TIP3      OH2           -13.1924365761      -23.3632039086       30.3597643649  TIP3      152             0.0000000000
     14255       252  TIP3      H1            -12.2145707782      -23.2957107448       30.4474434205  TIP3      152             0.0000000000
     14256       252  TIP3      H2            -13.4287325690      -23.3576224805       31.3020068974  TIP3      152             0.0000000000
     14257       253  TIP3      OH2           -13.2225721538      -22.7164154738       33.1065054108  TIP3      153             0.0000000000
     14258       253  TIP3      H1            -14.0464932585      -22.3867683557       33.5258508698  TIP3      153             0.0000000000
     14259       253  TIP3      H2            -12.7595666525      -21.8756436933       32.8979762232  TIP3      153             0.0000000000
     14260       254  TIP3      OH2           -29.1609991938      -23.9662060070       36.6869071985  TIP3      154             0.0000000000
     14261       254  TIP3      H1            -28.2390708015      -23.8391711451       36.9828815362  TIP3      154             0.0000000000
     14262       254  TIP3      H2            -29.4505552823      -24.6833384737       37.2730502398  TIP3      154             0.0000000000
     14263       255  TIP3      OH2           -10.7558987664      -29.0210949753       37.7236886807  TIP3      155             0.0000000000
     14264       255  TIP3      H1             -9.9697249339      -28.9367009506       37.1571706711  TIP3      155             0.0000000000
     14265       255  TIP3      H2            -11.0765233671      -28.1039923495       37.6696630097  TIP3      155             0.0000000000
     14266       256  TIP3      OH2           -13.6311908185      -27.2541026779       24.9774166394  TIP3      156             0.0000000000
     14267       256  TIP3      H1            -13.2979011225      -27.2016981865       25.9003719648  TIP3      156             0.0000000000
     14268       256  TIP3      H2            -14.0086481518      -28.1472502146       24.9667289469  TIP3      156             0.0000000000
     14269       257  TIP3      OH2           -27.8577995679      -25.6697056465       29.9823642483  TIP3      157             0.0000000000
     14270       257  TIP3      H1            -27.4579353255      -26.5704514248       29.9106782932  TIP3      157             0.0000000000
     14271       257  TIP3      H2            -27.0862205359      -25.1015358286       30.2126259291  TIP3      157             0.0000000000
     14272       258  TIP3      OH2           -29.1112122063      -22.6490559791       30.8616867458  TIP3      158             0.0000000000
     14273       258  TIP3      H1            -28.4356895258      -23.2566515261       31.2009241212  TIP3      158             0.0000000000
     14274       258  TIP3      H2            -28.8370929692      -21.8347167336       31.3332292438  TIP3      158             0.0000000000
     14275       259  TIP3      OH2           -11.4097799075      -26.3984454106       36.9916465206  TIP3      159             0.0000000000
     14276       259  TIP3      H1            -12.2614210188      -26.3047410877       37.4619758787  TIP3      159             0.0000000000
     14277       259  TIP3      H2            -11.7006359319      -26.7836956538       36.1442907909  TIP3      159             0.0000000000
     14278       260  TIP3      OH2           -28.8555451578      -26.2539241005       24.4076000258  TIP3      160             0.0000000000
     14279       260  TIP3      H1            -29.4911363862      -26.6839220428       25.0116224989  TIP3      160             0.0000000000
     14280       260  TIP3      H2            -29.4971674048      -25.7118740326       23.9201659456  TIP3      160             0.0000000000
     14281       261  TIP3      OH2           -14.2522363593      -11.7753500679       26.9897698076  TIP3      161             0.0000000000
     14282       261  TIP3      H1            -13.7109806499      -11.6805116115       26.1860608552  TIP3      161             0.0000000000
     14283       261  TIP3      H2            -14.0958741842      -10.9696024846       27.5078153887  TIP3      161             0.0000000000
     14284       262  TIP3      OH2           -29.2681323834      -28.2817763534       32.8539466012  TIP3      162             0.0000000000
     14285       262  TIP3      H1            -30.2308869931      -28.4289638962       32.8584039681  TIP3      162             0.0000000000
     14286       262  TIP3      H2            -29.1883132450      -27.3198449059       32.8615865582  TIP3      162             0.0000000000
     14287       263  TIP3      OH2           -26.9150927523      -14.4721365675       37.3282231119  TIP3      163             0.0000000000
     14288       263  TIP3      H1            -27.2087839026      -15.2282537709       36.7795660422  TIP3      163             0.0000000000
     14289       263  TIP3      H2            -27.0760326704      -14.7622303774       38.2436384707  TIP3      163             0.0000000000
     14290       264  TIP3      OH2           -24.3654292254      -13.4215362878       33.7979289567  TIP3      164             0.0000000000
     14291       264  TIP3      H1            -24.4295087179      -12.5046005048       33.4466653310  TIP3      164             0.0000000000
     14292       264  TIP3      H2            -23.3919589859      -13.5602176712       33.7372142985  TIP3      164             0.0000000000
     14293       265  TIP3      OH2           -20.1146740654      -12.3131093164       36.2219044145  TIP3      165             0.0000000000
     14294       265  TIP3      H1            -20.0707361191      -12.4335965456       37.1810833086  TIP3      165             0.0000000000
     14295       265  TIP3      H2            -19.2347619378      -11.9325220937       36.0393003280  TIP3      165             0.0000000000
     14296       266  TIP3      OH2           -17.9362949146      -10.4910149202       35.7037385736  TIP3      166             0.0000000000
     14297       266  TIP3      H1            -17.0934322629      -10.8998454134       35.4450388734  TIP3      166             0.0000000000
     14298       266  TIP3      H2            -17.6901762042      -10.0541142206       36.5320697806  TIP3      166             0.0000000000
     14299       267  TIP3      OH2           -12.1329799906      -28.3639266869       34.8417578605  TIP3      167             0.0000000000
     14300       267  TIP3      H1            -12.9720265807      -28.1841492359       34.3912025110  TIP3      167             0.0000000000
     14301       267  TIP3      H2            -12.1990724636      -29.3157118867       35.0262347764  TIP3      167             0.0000000000
     14302       268  TIP3      OH2           -27.2049869690      -10.6206417608       33.4490181236  TIP3      168             0.0000000000
     14303       268  TIP3      H1            -28.0495969528      -10.1427036740       33.2524083732  TIP3      168             0.0000000000
     14304       268  TIP3      H2            -26.9969356172      -10.2717673509       34.3272846008  TIP3      168             0.0000000000
     14305       269  TIP3      OH2           -24.6976908965      -11.0130885720       32.5407046998  TIP3      169             0.0000000000
     14306       269  TIP3      H1            -25.6532874578      -10.9231313533       32.7568692247  TIP3      169             0.0000000000
     14307       269  TIP3      H2            -24.6160877458      -10.3456342175       31.8377447246  TIP3      169             0.0000000000
     14308       270  TIP3      OH2           -19.7680865667      -11.4063932552       31.9094374699  TIP3      170             0.0000000000
     14309       270  TIP3      H1            -20.2250618346      -11.0444209133       31.1318294664  TIP3      170             0.0000000000
     14310       270  TIP3      H2            -19.5875079177      -10.5590688990       32.3724117366  TIP3      170             0.0000000000
     14311       271  TIP3      OH2           -17.5844252972      -12.4476550362       33.2927133419  TIP3      171             0.0000000000
     14312       271  TIP3      H1            -18.2745235166      -11.9942316431       32.7648599885  TIP3      171             0.0000000000
     14313       271  TIP3      H2            -16.8002576590      -11.9863264775       32.9473403094  TIP3      171             0.0000000000
     14314       272  TIP3      OH2           -15.0432993996      -11.1352994231       32.8118852512  TIP3      172             0.0000000000
     14315       272  TIP3      H1            -14.9719224421      -10.2763592086       32.3516178977  TIP3      172             0.0000000000
     14316       272  TIP3      H2            -14.8460107433      -11.7180069651       32.0411369593  TIP3      172             0.0000000000
     14317       273  TIP3      OH2           -27.2961164506      -11.9675309259       30.3327618308  TIP3      173             0.0000000000
     14318       273  TIP3      H1            -27.3821228754      -12.5503978864       31.1199257616  TIP3      173             0.0000000000
     14319       273  TIP3      H2            -26.5092861365      -12.3843313091       29.9047577733  TIP3      173             0.0000000000
     14320       274  TIP3      OH2           -25.0799841552      -12.8416483991       29.1933355201  TIP3      174             0.0000000000
     14321       274  TIP3      H1            -25.2198696929      -13.7711071648       29.4657420640  TIP3      174             0.0000000000
     14322       274  TIP3      H2            -24.2664718925      -12.6497586578       29.7121499300  TIP3      174             0.0000000000
     14323       275  TIP3      OH2           -22.8432135551      -12.8194101497       30.6788434989  TIP3      175             0.0000000000
     14324       275  TIP3      H1            -22.3303115823      -13.6321886715       30.5202169683  TIP3      175             0.0000000000
     14325       275  TIP3      H2            -22.6333497564      -12.6167731324       31.6066102281  TIP3      175             0.0000000000
     14326       276  TIP3      OH2           -18.8115271755      -27.4965524516       28.8215932198  TIP3      176             0.0000000000
     14327       276  TIP3      H1            -19.7730159397      -27.6045977632       28.8299726046  TIP3      176             0.0000000000
     14328       276  TIP3      H2            -18.5507423649      -28.3336414537       29.2651436578  TIP3      176             0.0000000000
     14329       277  TIP3      OH2           -14.2498210872      -28.0401617072       29.2484213768  TIP3      177             0.0000000000
     14330       277  TIP3      H1            -13.5947886009      -28.0679662687       28.5197691382  TIP3      177             0.0000000000
     14331       277  TIP3      H2            -15.0941135049      -28.1728685041       28.7560560999  TIP3      177             0.0000000000
     14332       278  TIP3      OH2           -12.1771323206      -27.6829687464       27.3706294462  TIP3      178             0.0000000000
     14333       278  TIP3      H1            -11.6467344103      -27.9136537511       26.5916204601  TIP3      178             0.0000000000
     14334       278  TIP3      H2            -11.6279727429      -26.9330875761       27.7097106932  TIP3      178             0.0000000000
     14335       279  TIP3      OH2           -26.2205373552      -28.5008770859       26.6572548505  TIP3      179             0.0000000000
     14336       279  TIP3      H1            -27.1320010735      -28.6792646295       26.4005672647  TIP3      179             0.0000000000
     14337       279  TIP3      H2            -25.9253350659      -29.4278009985       26.7698875383  TIP3      179             0.0000000000
     14338       280  TIP3      OH2           -27.5804975839      -28.0743775751       22.2428008370  TIP3      180             0.0000000000
     14339       280  TIP3      H1            -26.7905306458      -27.7276988412       21.8177490426  TIP3      180             0.0000000000
     14340       280  TIP3      H2            -27.5691090893      -27.6777631147       23.1255350228  TIP3      180             0.0000000000
     14341       281  TIP3      OH2           -21.8781826184      -28.5077873058       26.6880593574  TIP3      181             0.0000000000
     14342       281  TIP3      H1            -21.1818095291      -27.9273885211       26.3239533658  TIP3      181             0.0000000000
     14343       281  TIP3      H2            -21.7363883479      -28.3747293415       27.6442762222  TIP3      181             0.0000000000
     14344       282  TIP3      OH2           -16.3705823704      -28.6900798245       27.8384308002  TIP3      182             0.0000000000
     14345       282  TIP3      H1            -17.0592349853      -28.2818679039       27.2924944494  TIP3      182             0.0000000000
     14346       282  TIP3      H2            -16.7025728418      -29.6160950844       27.9035306069  TIP3      182             0.0000000000
     14347       283  TIP3      OH2           -28.0781416522      -12.7364356779       23.9959930759  TIP3      183             0.0000000000
     14348       283  TIP3      H1            -28.9731330822      -12.7900096960       23.6069055049  TIP3      183             0.0000000000
     14349       283  TIP3      H2            -28.2403459821      -12.1877275981       24.7818076886  TIP3      183             0.0000000000
     14350       284  TIP3      OH2           -21.4269884977      -26.6685153196       23.5525757233  TIP3      184             0.0000000000
     14351       284  TIP3      H1            -21.5229359497      -27.4004928068       24.1694118428  TIP3      184             0.0000000000
     14352       284  TIP3      H2            -21.0806639020      -25.9644289381       24.1302298032  TIP3      184             0.0000000000
     14353       285  TIP3      OH2           -12.7370858643      -12.4083306028       24.7698116199  TIP3      185             0.0000000000
     14354       285  TIP3      H1            -12.8022627966      -13.1870531193       24.1735405427  TIP3      185             0.0000000000
     14355       285  TIP3      H2            -12.9870863408      -11.6500012906       24.1890845252  TIP3      185             0.0000000000
     14356       286  TIP3      OH2           -27.0270367169      -27.8502049573       36.1394787175  TIP3      186             0.0000000000
     14357       286  TIP3      H1            -27.4424457503      -28.7267239902       35.9744206671  TIP3      186             0.0000000000
     14358       286  TIP3      H2            -26.3330117007      -28.0933595034       36.7937831962  TIP3      186             0.0000000000
     14359       287  TIP3      OH2           -25.1073838183      -28.1896944460       38.0126093418  TIP3      187             0.0000000000
     14360       287  TIP3      H1            -24.2544947669      -28.2688817253       37.5461483495  TIP3      187             0.0000000000
     14361       287  TIP3      H2            -25.2425665316      -29.1188419834       38.2979518897  TIP3      187             0.0000000000
     14362       288  TIP3      OH2           -16.6609228534      -28.9668089920       38.1357887192  TIP3      188             0.0000000000
     14363       288  TIP3      H1            -17.1941600187      -29.7408803409       38.3861743041  TIP3      188             0.0000000000
     14364       288  TIP3      H2            -15.8209273940      -29.3853342123       37.9283093941  TIP3      188             0.0000000000
     14365       289  TIP3      OH2           -13.1946269973      -12.9839623953       36.7658181693  TIP3      189             0.0000000000
     14366       289  TIP3      H1            -13.7865412955      -13.0118445160       35.9744198767  TIP3      189             0.0000000000
     14367       289  TIP3      H2            -13.4528496037      -12.1141526896       37.1275533284  TIP3      189             0.0000000000
     14368       290  TIP3      OH2             1.2915519556      -19.2907390455       26.8343257563  TIP3      190             0.0000000000
     14369       290  TIP3      H1              1.2384257179      -18.3586027550       27.1175672413  TIP3      190             0.0000000000
     14370       290  TIP3      H2              0.6715431264      -19.3051571642       26.0758862196  TIP3      190             0.0000000000
     14371       291  TIP3      OH2             0.2558848034      -20.4991663056       30.2949885957  TIP3      191             0.0000000000
     14372       291  TIP3      H1              0.2002801845      -20.8681028806       31.1843296439  TIP3      191             0.0000000000
     14373       291  TIP3      H2             -0.6639108715      -20.4744761663       29.9671438056  TIP3      191             0.0000000000
     14374       292  TIP3      OH2            -7.8759957357      -20.3952713636       31.9118580630  TIP3      192             0.0000000000
     14375       292  TIP3      H1             -7.8826903015      -21.2469108887       32.3797157992  TIP3      192             0.0000000000
     14376       292  TIP3      H2             -7.0462669644      -20.4736964091       31.4231401529  TIP3      192             0.0000000000
     14377       293  TIP3      OH2             2.9587301905      -16.9679237204       29.1807864718  TIP3      193             0.0000000000
     14378       293  TIP3      H1              3.0805003911      -17.7987260304       29.6751620547  TIP3      193             0.0000000000
     14379       293  TIP3      H2              3.4343448326      -16.3587117157       29.7731401474  TIP3      193             0.0000000000
     14380       294  TIP3      OH2            -6.7369487851      -15.9022183117       29.9015362578  TIP3      194             0.0000000000
     14381       294  TIP3      H1             -6.9795565524      -16.8430758585       29.7870119223  TIP3      194             0.0000000000
     14382       294  TIP3      H2             -5.7898904497      -15.9417460496       29.6492787664  TIP3      194             0.0000000000
     14383       295  TIP3      OH2            -9.8427147912      -22.6633162831       25.4647121275  TIP3      195             0.0000000000
     14384       295  TIP3      H1             -9.9063822127      -21.7771765606       25.8522310761  TIP3      195             0.0000000000
     14385       295  TIP3      H2            -10.7314458038      -22.9955262907       25.6860975588  TIP3      195             0.0000000000
     14386       296  TIP3      OH2            -9.3062069706      -20.0555032763       28.1133195568  TIP3      196             0.0000000000
     14387       296  TIP3      H1             -8.7483048395      -20.8031343077       28.4229845333  TIP3      196             0.0000000000
     14388       296  TIP3      H2             -8.6322640797      -19.3753064111       27.9139822124  TIP3      196             0.0000000000
     14389       297  TIP3      OH2             0.8130661290      -11.8260351754       28.6540954776  TIP3      197             0.0000000000
     14390       297  TIP3      H1              1.4753283838      -12.3943600361       28.1860450844  TIP3      197             0.0000000000
     14391       297  TIP3      H2              0.5079269922      -12.4421546735       29.3349424249  TIP3      197             0.0000000000
     14392       298  TIP3      OH2            -1.8225206723      -17.2159628506       31.2181874966  TIP3      198             0.0000000000
     14393       298  TIP3      H1             -1.6001436422      -17.4357001862       30.3045638439  TIP3      198             0.0000000000
     14394       298  TIP3      H2             -0.9159822327      -17.0681326907       31.5701900790  TIP3      198             0.0000000000
     14395       299  TIP3      OH2             6.9416545739      -26.3898294308       31.2583190751  TIP3      199             0.0000000000
     14396       299  TIP3      H1              7.0763827283      -25.7210267515       31.9664005858  TIP3      199             0.0000000000
     14397       299  TIP3      H2              7.5768365674      -26.0906924101       30.5908559910  TIP3      199             0.0000000000
     14398       300  TIP3      OH2             1.9771927460      -23.2312469139       31.3004360563  TIP3      200             0.0000000000
     14399       300  TIP3      H1              2.3509831851      -24.0667370708       31.6268630664  TIP3      200             0.0000000000
     14400       300  TIP3      H2              1.9511494492      -23.4047259235       30.3310431347  TIP3      200             0.0000000000
     14401       301  TIP3      OH2            -5.0942105297      -25.0461782986       27.9708174717  TIP3      201             0.0000000000
     14402       301  TIP3      H1             -5.0665602799      -24.1854566355       27.4912704420  TIP3      201             0.0000000000
     14403       301  TIP3      H2             -5.6649964188      -25.5158547885       27.3314987386  TIP3      201             0.0000000000
     14404       302  TIP3      OH2             2.3730142443      -25.1803533893       26.5178470824  TIP3      202             0.0000000000
     14405       302  TIP3      H1              2.7976171077      -25.3416565810       27.3913560805  TIP3      202             0.0000000000
     14406       302  TIP3      H2              2.9419858381      -24.4735849745       26.1621852320  TIP3      202             0.0000000000
     14407       303  TIP3      OH2            -9.0894176293      -22.7867857499       28.8406848054  TIP3      203             0.0000000000
     14408       303  TIP3      H1             -8.1843918212      -22.5046550126       29.0855190618  TIP3      203             0.0000000000
     14409       303  TIP3      H2             -8.8661441428      -23.3703006195       28.0848612783  TIP3      203             0.0000000000
     14410       304  TIP3      OH2            -3.5383927103      -20.7220110714       27.8812517320  TIP3      204             0.0000000000
     14411       304  TIP3      H1             -2.7508532804      -21.2092285924       28.2047989060  TIP3      204             0.0000000000
     14412       304  TIP3      H2             -4.1665893903      -21.4546212150       27.8010005467  TIP3      204             0.0000000000
     14413       305  TIP3      OH2             7.2978248688      -24.8463760742       33.5643459252  TIP3      205             0.0000000000
     14414       305  TIP3      H1              6.7975971065      -24.0884293972       33.1822887972  TIP3      205             0.0000000000
     14415       305  TIP3      H2              7.2411306137      -24.5991316764       34.5026413821  TIP3      205             0.0000000000
     14416       306  TIP3      OH2            -6.1497151970      -26.3643746297       32.1259366305  TIP3      206             0.0000000000
     14417       306  TIP3      H1             -6.3735305312      -25.6944318960       31.4311075561  TIP3      206             0.0000000000
     14418       306  TIP3      H2             -6.8506226500      -26.1921706670       32.7825309196  TIP3      206             0.0000000000
     14419       307  TIP3      OH2             0.7216271850      -16.5465062971       25.9243471901  TIP3      207             0.0000000000
     14420       307  TIP3      H1              0.8881567626      -16.6982424457       24.9722662095  TIP3      207             0.0000000000
     14421       307  TIP3      H2              0.0995369373      -15.8011072152       25.9211624634  TIP3      207             0.0000000000
     14422       308  TIP3      OH2            -3.8492005465      -18.4778439935       32.4754853409  TIP3      208             0.0000000000
     14423       308  TIP3      H1             -4.4935659717      -17.7883637583       32.7395284885  TIP3      208             0.0000000000
     14424       308  TIP3      H2             -3.1825307206      -17.9413536407       31.9798226791  TIP3      208             0.0000000000
     14425       309  TIP3      OH2             3.8553020316      -25.3973103997       28.8383553740  TIP3      209             0.0000000000
     14426       309  TIP3      H1              3.9903536125      -26.3349860616       29.0853951459  TIP3      209             0.0000000000
     14427       309  TIP3      H2              4.7400653059      -25.0508450280       28.9956164078  TIP3      209             0.0000000000
     14428       310  TIP3      OH2            -6.6054077227      -24.2977990791       30.2459983472  TIP3      210             0.0000000000
     14429       310  TIP3      H1             -6.5631380488      -23.3215009773       30.1203073131  TIP3      210             0.0000000000
     14430       310  TIP3      H2             -6.1755921955      -24.5375709092       29.3946199541  TIP3      210             0.0000000000
     14431       311  TIP3      OH2            -5.3818385522      -16.3737235174       33.0297206620  TIP3      211             0.0000000000
     14432       311  TIP3      H1             -5.6637410669      -15.8993205774       32.2318664530  TIP3      211             0.0000000000
     14433       311  TIP3      H2             -6.2295914514      -16.3789132524       33.5477420116  TIP3      211             0.0000000000
     14434       312  TIP3      OH2            -9.8349048670      -16.7293940868       24.0508677573  TIP3      212             0.0000000000
     14435       312  TIP3      H1             -9.5888341941      -16.3675093994       23.1718813610  TIP3      212             0.0000000000
     14436       312  TIP3      H2             -9.5277149829      -16.0772649514       24.6975377077  TIP3      212             0.0000000000
     14437       313  TIP3      OH2             4.1261970400      -15.2582231090       30.9489067433  TIP3      213             0.0000000000
     14438       313  TIP3      H1              3.1739589354      -15.0468081088       31.1008278741  TIP3      213             0.0000000000
     14439       313  TIP3      H2              4.3705865793      -14.4624449029       30.4480478297  TIP3      213             0.0000000000
     14440       314  TIP3      OH2             4.5749666501      -26.4367820800       32.5320122269  TIP3      214             0.0000000000
     14441       314  TIP3      H1              3.9000243981      -26.2038343968       31.8585561421  TIP3      214             0.0000000000
     14442       314  TIP3      H2              5.3536939931      -26.6189113735       31.9626253622  TIP3      214             0.0000000000
     14443       315  TIP3      OH2            -2.5554701229      -28.3151496707       29.1860432779  TIP3      215             0.0000000000
     14444       315  TIP3      H1             -2.2985500010      -29.0130911055       29.8024091055  TIP3      215             0.0000000000
     14445       315  TIP3      H2             -3.2935899858      -27.8999267265       29.6902826715  TIP3      215             0.0000000000
     14446       316  TIP3      OH2             2.6596044268      -13.3600825050       27.4033397028  TIP3      216             0.0000000000
     14447       316  TIP3      H1              2.7180771504      -14.0991804675       26.7788743197  TIP3      216             0.0000000000
     14448       316  TIP3      H2              3.3513524532      -12.7437100055       27.0924541953  TIP3      216             0.0000000000
     14449       317  TIP3      OH2             4.1050722620      -15.6357764472       25.7107007805  TIP3      217             0.0000000000
     14450       317  TIP3      H1              3.3407960325      -15.5932851583       25.0995880262  TIP3      217             0.0000000000
     14451       317  TIP3      H2              3.7178498062      -16.0874998631       26.4794293295  TIP3      217             0.0000000000
     14452       318  TIP3      OH2             5.3128887406      -16.8764255283       34.6987059338  TIP3      218             0.0000000000
     14453       318  TIP3      H1              5.2709393612      -17.6219069493       34.0585076193  TIP3      218             0.0000000000
     14454       318  TIP3      H2              5.5405653624      -16.1305678840       34.1083258544  TIP3      218             0.0000000000
     14455       319  TIP3      OH2             0.1284518250      -19.6323932750       24.3435950238  TIP3      219             0.0000000000
     14456       319  TIP3      H1             -0.8069122787      -19.3348747686       24.2672608347  TIP3      219             0.0000000000
     14457       319  TIP3      H2              0.4801508798      -19.1472269681       23.5718438339  TIP3      219             0.0000000000
     14458       320  TIP3      OH2             0.0793789820      -20.9530335560       21.3009110991  TIP3      220             0.0000000000
     14459       320  TIP3      H1              0.9967887228      -21.0683030825       21.6126418303  TIP3      220             0.0000000000
     14460       320  TIP3      H2             -0.4038658035      -21.6593994992       21.7470912161  TIP3      220             0.0000000000
     14461       321  TIP3      OH2             7.2795934946      -20.5036082609       32.3571147289  TIP3      221             0.0000000000
     14462       321  TIP3      H1              6.5441249943      -19.8542571106       32.4150759919  TIP3      221             0.0000000000
     14463       321  TIP3      H2              7.8873384152      -20.0601748098       31.7328807596  TIP3      221             0.0000000000
     14464       322  TIP3      OH2             3.5293540649      -19.8757338731       25.3313079073  TIP3      222             0.0000000000
     14465       322  TIP3      H1              2.6947208456      -19.6157746163       25.7903771245  TIP3      222             0.0000000000
     14466       322  TIP3      H2              4.0224799785      -20.2663336166       26.0745929107  TIP3      222             0.0000000000
     14467       323  TIP3      OH2             3.5227167767      -20.9786275495       34.2897205940  TIP3      223             0.0000000000
     14468       323  TIP3      H1              3.3134540550      -20.0590780537       34.5137484391  TIP3      223             0.0000000000
     14469       323  TIP3      H2              2.6594355815      -21.2723005936       33.9305027877  TIP3      223             0.0000000000
     14470       324  TIP3      OH2            -5.2397328738      -18.9014509641       26.9147454342  TIP3      224             0.0000000000
     14471       324  TIP3      H1             -5.4642890925      -19.4716537701       26.1502572646  TIP3      224             0.0000000000
     14472       324  TIP3      H2             -4.6417242970      -19.5031582429       27.4278410628  TIP3      224             0.0000000000
     14473       325  TIP3      OH2            -3.8938414543      -16.0953863100       29.7300370230  TIP3      225             0.0000000000
     14474       325  TIP3      H1             -3.7016395855      -16.3889514410       28.8212761290  TIP3      225             0.0000000000
     14475       325  TIP3      H2             -3.1201594641      -16.3963312001       30.2363833283  TIP3      225             0.0000000000
     14476       326  TIP3      OH2            -3.9262129951      -20.6002547250       30.9528823171  TIP3      226             0.0000000000
     14477       326  TIP3      H1             -4.5615976362      -20.4740981934       30.2112555011  TIP3      226             0.0000000000
     14478       326  TIP3      H2             -4.0096985468      -19.7520842891       31.4429705535  TIP3      226             0.0000000000
     14479       327  TIP3      OH2             1.6289563954      -14.5849696805       31.5000890642  TIP3      227             0.0000000000
     14480       327  TIP3      H1              1.5238598040      -13.9976190426       32.2731836441  TIP3      227             0.0000000000
     14481       327  TIP3      H2              1.1430365530      -15.3841940929       31.8057829329  TIP3      227             0.0000000000
     14482       328  TIP3      OH2            -3.6059462554      -15.7860571107       35.0428313339  TIP3      228             0.0000000000
     14483       328  TIP3      H1             -4.2681175630      -15.1953886015       35.4694002733  TIP3      228             0.0000000000
     14484       328  TIP3      H2             -4.1179148686      -16.0567802637       34.2455883686  TIP3      228             0.0000000000
     14485       329  TIP3      OH2             2.7328109869      -20.7059672310       22.5340721602  TIP3      229             0.0000000000
     14486       329  TIP3      H1              2.9227024482      -20.5242453187       23.4675220229  TIP3      229             0.0000000000
     14487       329  TIP3      H2              2.7045975526      -19.8116703469       22.1703905794  TIP3      229             0.0000000000
     14488       330  TIP3      OH2            -6.6522519474      -19.9552639059       34.6775839250  TIP3      230             0.0000000000
     14489       330  TIP3      H1             -6.4536408053      -19.2286025313       35.2950606469  TIP3      230             0.0000000000
     14490       330  TIP3      H2             -7.5274152990      -20.1936409904       35.0182414765  TIP3      230             0.0000000000
     14491       331  TIP3      OH2            -1.5567993889      -14.1561275004       26.1818928938  TIP3      231             0.0000000000
     14492       331  TIP3      H1             -0.8173138855      -13.5607583081       26.3537616066  TIP3      231             0.0000000000
     14493       331  TIP3      H2             -1.6774831665      -14.1244203978       25.2105670562  TIP3      231             0.0000000000
     14494       332  TIP3      OH2            -5.3982418096      -14.3524425315       36.4238306515  TIP3      232             0.0000000000
     14495       332  TIP3      H1             -5.6225099159      -13.8818330862       35.5953757205  TIP3      232             0.0000000000
     14496       332  TIP3      H2             -6.3001089722      -14.5828811408       36.7323311259  TIP3      232             0.0000000000
     14497       333  TIP3      OH2             6.1190033315      -28.8849197348       22.6835262801  TIP3      233             0.0000000000
     14498       333  TIP3      H1              5.1866543141      -28.7374900493       22.9283770013  TIP3      233             0.0000000000
     14499       333  TIP3      H2              6.5594864112      -28.1471210170       23.1372219126  TIP3      233             0.0000000000
     14500       334  TIP3      OH2            -6.2130659769      -20.3230071034       24.7441869204  TIP3      234             0.0000000000
     14501       334  TIP3      H1             -6.3875453058      -19.6486142271       24.0586766469  TIP3      234             0.0000000000
     14502       334  TIP3      H2             -6.8566733422      -20.9968512130       24.5173687688  TIP3      234             0.0000000000
     14503       335  TIP3      OH2            -9.7681584930      -17.6495634623       33.5943685014  TIP3      235             0.0000000000
     14504       335  TIP3      H1            -10.1581254061      -17.7217081269       32.7142984393  TIP3      235             0.0000000000
     14505       335  TIP3      H2             -9.4285631100      -18.5564010166       33.7291344320  TIP3      235             0.0000000000
     14506       336  TIP3      OH2           -10.0921771674      -15.1132259382       30.2115652328  TIP3      236             0.0000000000
     14507       336  TIP3      H1             -9.1405660871      -15.1979641611       30.3683851380  TIP3      236             0.0000000000
     14508       336  TIP3      H2            -10.2731478431      -14.2867121622       30.6746315925  TIP3      236             0.0000000000
     14509       337  TIP3      OH2             7.8463715764      -14.3687607358       35.9149042946  TIP3      237             0.0000000000
     14510       337  TIP3      H1              7.8693255775      -15.3348272349       36.0270651021  TIP3      237             0.0000000000
     14511       337  TIP3      H2              6.9961876964      -14.1794204676       36.3774857578  TIP3      237             0.0000000000
     14512       338  TIP3      OH2            -1.1174069873      -14.5790144590       35.0242776135  TIP3      238             0.0000000000
     14513       338  TIP3      H1             -1.1527635941      -13.7908154922       35.6008074914  TIP3      238             0.0000000000
     14514       338  TIP3      H2             -2.0412223209      -14.9161294147       35.0177958530  TIP3      238             0.0000000000
     14515       339  TIP3      OH2            -1.0595272480      -10.9287950764       24.7991920855  TIP3      239             0.0000000000
     14516       339  TIP3      H1             -0.7426205472      -10.9106784512       23.8742909441  TIP3      239             0.0000000000
     14517       339  TIP3      H2             -0.6971620891      -10.0756099868       25.1128939200  TIP3      239             0.0000000000
     14518       340  TIP3      OH2            -7.1330206815      -12.1852597726       26.9028594614  TIP3      240             0.0000000000
     14519       340  TIP3      H1             -6.7756609537      -12.3866097465       27.7983749092  TIP3      240             0.0000000000
     14520       340  TIP3      H2             -7.8189783713      -12.8814542017       26.7825627304  TIP3      240             0.0000000000
     14521       341  TIP3      OH2             1.8998046864      -11.4132964017       24.9087261168  TIP3      241             0.0000000000
     14522       341  TIP3      H1              0.9525195892      -11.6234772308       24.8913751637  TIP3      241             0.0000000000
     14523       341  TIP3      H2              2.2392685914      -12.2703655280       24.5615552188  TIP3      241             0.0000000000
     14524       342  TIP3      OH2             4.7031094145      -23.0016754183       36.5284500057  TIP3      242             0.0000000000
     14525       342  TIP3      H1              4.2307407440      -22.3651818146       35.9656084690  TIP3      242             0.0000000000
     14526       342  TIP3      H2              4.6602653927      -23.8177866005       35.9765748822  TIP3      242             0.0000000000
     14527       343  TIP3      OH2            -7.6048946845      -16.3693856604       34.4831510952  TIP3      243             0.0000000000
     14528       343  TIP3      H1             -7.5386892141      -16.8542729135       35.3341262939  TIP3      243             0.0000000000
     14529       343  TIP3      H2             -8.4479749975      -16.7241931373       34.1221140967  TIP3      243             0.0000000000
     14530       344  TIP3      OH2            -4.6652710474      -27.4287973058       30.3819984964  TIP3      244             0.0000000000
     14531       344  TIP3      H1             -5.0858118396      -26.7677238844       29.7939571052  TIP3      244             0.0000000000
     14532       344  TIP3      H2             -5.1666823787      -27.2589670723       31.2170891799  TIP3      244             0.0000000000
     14533       345  TIP3      OH2            -0.5222728989      -27.9716320648       34.6314722855  TIP3      245             0.0000000000
     14534       345  TIP3      H1             -0.0644298443      -28.8339208031       34.5709788704  TIP3      245             0.0000000000
     14535       345  TIP3      H2             -1.3218889906      -28.1349530304       34.1125090813  TIP3      245             0.0000000000
     14536       346  TIP3      OH2             2.3830925209      -24.2150418912       34.5032224425  TIP3      246             0.0000000000
     14537       346  TIP3      H1              1.7858087719      -24.3865550558       35.2853834091  TIP3      246             0.0000000000
     14538       346  TIP3      H2              1.8935277500      -23.5427390685       34.0117511936  TIP3      246             0.0000000000
     14539       347  TIP3      OH2            -4.7206468731      -22.9236152225       32.1126195059  TIP3      247             0.0000000000
     14540       347  TIP3      H1             -5.6304162592      -22.7833494022       32.4297915758  TIP3      247             0.0000000000
     14541       347  TIP3      H2             -4.6336112830      -22.2071114627       31.4459241763  TIP3      247             0.0000000000
     14542       348  TIP3      OH2            -5.2657620990      -23.1855918886       26.0583919953  TIP3      248             0.0000000000
     14543       348  TIP3      H1             -5.7178830688      -22.3217235571       26.0288862687  TIP3      248             0.0000000000
     14544       348  TIP3      H2             -4.9016338187      -23.2536650099       25.1492749036  TIP3      248             0.0000000000
     14545       349  TIP3      OH2             0.6790796357      -22.3903856274       25.4672748863  TIP3      249             0.0000000000
     14546       349  TIP3      H1              0.6612751729      -21.4576494055       25.1627777107  TIP3      249             0.0000000000
     14547       349  TIP3      H2              1.1705614265      -22.8159732835       24.7321037893  TIP3      249             0.0000000000
     14548       350  TIP3      OH2            -0.9749780876      -21.7155197389       36.8645811891  TIP3      250             0.0000000000
     14549       350  TIP3      H1             -1.1542654850      -22.6531048714       37.1082349805  TIP3      250             0.0000000000
     14550       350  TIP3      H2             -0.0332750484      -21.6595593510       37.1179996451  TIP3      250             0.0000000000
     14551       351  TIP3      OH2             1.5832777299      -22.7816514496       28.6440540732  TIP3      251             0.0000000000
     14552       351  TIP3      H1              1.4099444503      -21.8259433815       28.5366458628  TIP3      251             0.0000000000
     14553       351  TIP3      H2              1.3436472032      -23.0997249646       27.7503332957  TIP3      251             0.0000000000
     14554       352  TIP3      OH2            -7.4874045738      -22.8435936515       33.0124509874  TIP3      252             0.0000000000
     14555       352  TIP3      H1             -7.4863411134      -22.7279922475       33.9747097782  TIP3      252             0.0000000000
     14556       352  TIP3      H2             -7.6704778609      -23.7915912567       32.9047097684  TIP3      252             0.0000000000
     14557       353  TIP3      OH2           -10.5596672613      -25.5153210964       27.6666925715  TIP3      253             0.0000000000
     14558       353  TIP3      H1            -10.0162236495      -25.2675775140       28.4412864064  TIP3      253             0.0000000000
     14559       353  TIP3      H2             -9.9035889229      -25.4325720800       26.9686450700  TIP3      253             0.0000000000
     14560       354  TIP3      OH2            -9.7627725165      -24.4834613547       23.0695991060  TIP3      254             0.0000000000
     14561       354  TIP3      H1             -9.3872929798      -24.0948338927       22.2722736358  TIP3      254             0.0000000000
     14562       354  TIP3      H2             -9.3647571797      -23.9464969114       23.7824489892  TIP3      254             0.0000000000
     14563       355  TIP3      OH2             1.0600877648      -21.6241917116       33.2443645794  TIP3      255             0.0000000000
     14564       355  TIP3      H1              1.3683547738      -22.1538979354       32.4699632773  TIP3      255             0.0000000000
     14565       355  TIP3      H2              0.2553002014      -22.1032718500       33.5482619303  TIP3      255             0.0000000000
     14566       356  TIP3      OH2            -2.2497727245      -25.4253474661       27.5468692298  TIP3      256             0.0000000000
     14567       356  TIP3      H1             -3.2211985314      -25.4487426226       27.6659836195  TIP3      256             0.0000000000
     14568       356  TIP3      H2             -1.9599047515      -25.0600235825       28.3957544035  TIP3      256             0.0000000000
     14569       357  TIP3      OH2            -8.2153929246      -24.2527732819       26.8587396172  TIP3      257             0.0000000000
     14570       357  TIP3      H1             -8.5858555809      -23.8030469254       26.0680587351  TIP3      257             0.0000000000
     14571       357  TIP3      H2             -7.5007625455      -24.8072917336       26.4793359411  TIP3      257             0.0000000000
     14572       358  TIP3      OH2            -4.0329435244      -23.6711154099       23.5884351317  TIP3      258             0.0000000000
     14573       358  TIP3      H1             -3.0956365065      -23.5507876605       23.8306162299  TIP3      258             0.0000000000
     14574       358  TIP3      H2             -4.1114265825      -22.9488359559       22.9274603009  TIP3      258             0.0000000000
     14575       359  TIP3      OH2             2.0612441971      -26.2274794815       30.9851307474  TIP3      259             0.0000000000
     14576       359  TIP3      H1              1.2654899248      -26.0981591064       31.5420051798  TIP3      259             0.0000000000
     14577       359  TIP3      H2              1.7199782580      -26.2221647815       30.0737250746  TIP3      259             0.0000000000
     14578       360  TIP3      OH2             4.8812146402      -10.3550154742       37.5153442756  TIP3      260             0.0000000000
     14579       360  TIP3      H1              5.3546115909      -10.2050754516       36.6789011422  TIP3      260             0.0000000000
     14580       360  TIP3      H2              5.6001519356      -10.1172480619       38.1338157249  TIP3      260             0.0000000000
     14581       361  TIP3      OH2            -7.2276447317      -18.0559444429       36.6201135473  TIP3      261             0.0000000000
     14582       361  TIP3      H1             -6.4941443570      -17.7380775132       37.1847662142  TIP3      261             0.0000000000
     14583       361  TIP3      H2             -7.9806348733      -18.1070020456       37.2487868654  TIP3      261             0.0000000000
     14584       362  TIP3      OH2            -1.7184259336      -22.3801458444       28.9770016938  TIP3      262             0.0000000000
     14585       362  TIP3      H1             -0.8092674934      -22.6700118163       29.1605401190  TIP3      262             0.0000000000
     14586       362  TIP3      H2             -2.2119409342      -22.8126025063       29.6998434057  TIP3      262             0.0000000000
     14587       363  TIP3      OH2            -6.6960877635      -26.3109060977       26.1104620412  TIP3      263             0.0000000000
     14588       363  TIP3      H1             -7.1373851694      -27.0830081478       26.5196026890  TIP3      263             0.0000000000
     14589       363  TIP3      H2             -6.0489675484      -26.7302105555       25.5303664430  TIP3      263             0.0000000000
     14590       364  TIP3      OH2            -2.5055411626      -24.2023560133       31.2877547316  TIP3      264             0.0000000000
     14591       364  TIP3      H1             -3.3173898685      -23.6913168930       31.5150111580  TIP3      264             0.0000000000
     14592       364  TIP3      H2             -1.9323814669      -23.9883272858       32.0329930147  TIP3      264             0.0000000000
     14593       365  TIP3      OH2            -2.2611408051      -18.3962660354       23.9699015568  TIP3      265             0.0000000000
     14594       365  TIP3      H1             -2.8171023881      -18.2195391680       23.2037418621  TIP3      265             0.0000000000
     14595       365  TIP3      H2             -2.3124468384      -17.5498880081       24.4337565513  TIP3      265             0.0000000000
     14596       366  TIP3      OH2             5.4313008825      -18.5080127849       32.6370825092  TIP3      266             0.0000000000
     14597       366  TIP3      H1              5.8852568203      -17.9830709648       31.9378654748  TIP3      266             0.0000000000
     14598       366  TIP3      H2              4.5570090201      -18.5948155903       32.2316938473  TIP3      266             0.0000000000
     14599       367  TIP3      OH2            -0.5437527083      -17.3170914673       34.6627032231  TIP3      267             0.0000000000
     14600       367  TIP3      H1             -1.1618598023      -17.9668748338       35.0195679794  TIP3      267             0.0000000000
     14601       367  TIP3      H2             -0.7507815829      -16.5304580749       35.2010758751  TIP3      267             0.0000000000
     14602       368  TIP3      OH2             2.3111584217      -23.4271114515       23.5013865711  TIP3      268             0.0000000000
     14603       368  TIP3      H1              3.1060727493      -23.3868472668       24.0699542201  TIP3      268             0.0000000000
     14604       368  TIP3      H2              2.7396338692      -23.4567191771       22.6212927063  TIP3      268             0.0000000000
     14605       369  TIP3      OH2            -7.1857155229      -18.5051676223       28.8806524078  TIP3      269             0.0000000000
     14606       369  TIP3      H1             -6.6581305079      -18.4200965017       28.0578918410  TIP3      269             0.0000000000
     14607       369  TIP3      H2             -6.9473648333      -19.4152721378       29.1529600686  TIP3      269             0.0000000000
     14608       370  TIP3      OH2             0.5180616763      -16.8939679928       23.0040867958  TIP3      270             0.0000000000
     14609       370  TIP3      H1              0.8468261286      -15.9629586875       22.9495575338  TIP3      270             0.0000000000
     14610       370  TIP3      H2             -0.2704091773      -16.8512616414       22.4501264547  TIP3      270             0.0000000000
     14611       371  TIP3      OH2            -9.7371967134      -20.2327365419       34.7586912378  TIP3      271             0.0000000000
     14612       371  TIP3      H1             -9.8867357252      -20.8164762316       35.5270730127  TIP3      271             0.0000000000
     14613       371  TIP3      H2            -10.2460081389      -20.6710945411       34.0588250876  TIP3      271             0.0000000000
     14614       372  TIP3      OH2            -3.5550908697      -20.5565932494       36.9390546307  TIP3      272             0.0000000000
     14615       372  TIP3      H1             -3.7854716750      -21.1132082412       36.1651699212  TIP3      272             0.0000000000
     14616       372  TIP3      H2             -2.6071979112      -20.7679305257       37.0374685781  TIP3      272             0.0000000000
     14617       373  TIP3      OH2             2.1466072996      -15.1396222472       35.1264919147  TIP3      273             0.0000000000
     14618       373  TIP3      H1              1.3011179966      -14.9823429144       34.6817679469  TIP3      273             0.0000000000
     14619       373  TIP3      H2              1.9191717717      -14.7532073776       36.0000934774  TIP3      273             0.0000000000
     14620       374  TIP3      OH2             7.2647675809      -23.1531388781       23.6715061198  TIP3      274             0.0000000000
     14621       374  TIP3      H1              6.7620750218      -23.9438502174       23.4085518663  TIP3      274             0.0000000000
     14622       374  TIP3      H2              6.7037017833      -22.4399196656       23.3358680584  TIP3      274             0.0000000000
     14623       375  TIP3      OH2             7.7900811173      -17.1022880490       35.8334024223  TIP3      275             0.0000000000
     14624       375  TIP3      H1              6.8630881521      -16.9926801062       35.5117501166  TIP3      275             0.0000000000
     14625       375  TIP3      H2              8.2791319714      -17.2108019973       34.9869763053  TIP3      275             0.0000000000
     14626       376  TIP3      OH2             5.4320240131      -14.6780508684       23.4794231965  TIP3      276             0.0000000000
     14627       376  TIP3      H1              5.3249171562      -15.0477258257       24.3780098160  TIP3      276             0.0000000000
     14628       376  TIP3      H2              4.4839305285      -14.5029832348       23.2896814388  TIP3      276             0.0000000000
     14629       377  TIP3      OH2             3.2863947600      -19.3382101725       30.5801056440  TIP3      277             0.0000000000
     14630       377  TIP3      H1              2.3437128367      -19.5688005851       30.5028327088  TIP3      277             0.0000000000
     14631       377  TIP3      H2              3.7199582458      -20.1038612009       30.1531750600  TIP3      277             0.0000000000
     14632       378  TIP3      OH2            -4.9493140848      -14.9832453898       27.1114359492  TIP3      278             0.0000000000
     14633       378  TIP3      H1             -4.2145555425      -14.3407289017       27.0775942925  TIP3      278             0.0000000000
     14634       378  TIP3      H2             -5.4726189912      -14.6635557189       26.3634357784  TIP3      278             0.0000000000
     14635       379  TIP3      OH2            -8.8893147202      -21.1226235246       21.8066112936  TIP3      279             0.0000000000
     14636       379  TIP3      H1             -8.3379215840      -20.3403637981       21.6262271505  TIP3      279             0.0000000000
     14637       379  TIP3      H2             -9.7260948746      -20.7390409195       22.1227700366  TIP3      279             0.0000000000
     14638       380  TIP3      OH2            -3.0651572039      -17.0321787740       26.6160461091  TIP3      280             0.0000000000
     14639       380  TIP3      H1             -3.6913755172      -16.2804848972       26.5488673564  TIP3      280             0.0000000000
     14640       380  TIP3      H2             -3.6564228978      -17.7996223855       26.6320350504  TIP3      280             0.0000000000
     14641       381  TIP3      OH2            -2.5424667110      -13.1471449792       33.1008205863  TIP3      281             0.0000000000
     14642       381  TIP3      H1             -1.9204717852      -12.4982388443       32.7062489569  TIP3      281             0.0000000000
     14643       381  TIP3      H2             -1.9891873047      -13.5497316010       33.7962046693  TIP3      281             0.0000000000
     14644       382  TIP3      OH2            -4.4862409062      -12.4839254007       26.1101748896  TIP3      282             0.0000000000
     14645       382  TIP3      H1             -5.4480921721      -12.3599336514       26.2319174164  TIP3      282             0.0000000000
     14646       382  TIP3      H2             -4.1699566858      -11.5698294355       26.1440957356  TIP3      282             0.0000000000
     14647       383  TIP3      OH2             0.7171382267      -17.0644529022       32.3452840658  TIP3      283             0.0000000000
     14648       383  TIP3      H1              0.2848295209      -17.2255341513       33.2263724921  TIP3      283             0.0000000000
     14649       383  TIP3      H2              1.4685567232      -17.6845666444       32.3596747093  TIP3      283             0.0000000000
     14650       384  TIP3      OH2             3.8850121089      -12.6568181783       34.9092497720  TIP3      284             0.0000000000
     14651       384  TIP3      H1              3.0720298980      -13.2062880016       34.8737474535  TIP3      284             0.0000000000
     14652       384  TIP3      H2              3.8171080750      -12.1287298385       34.0831318500  TIP3      284             0.0000000000
     14653       385  TIP3      OH2            -7.7573920585      -25.5168392927       34.2746709603  TIP3      285             0.0000000000
     14654       385  TIP3      H1             -8.2715743862      -25.0532328875       34.9596376387  TIP3      285             0.0000000000
     14655       385  TIP3      H2             -7.7170719666      -26.4189483872       34.6482342966  TIP3      285             0.0000000000
     14656       386  TIP3      OH2             4.2406422933      -17.9880398772       23.4546231794  TIP3      286             0.0000000000
     14657       386  TIP3      H1              4.0605094551      -18.6123234382       24.1896345453  TIP3      286             0.0000000000
     14658       386  TIP3      H2              4.9515583194      -17.4330590265       23.8008035921  TIP3      286             0.0000000000
     14659       387  TIP3      OH2            -8.6574702859      -13.7987533070       32.4828502265  TIP3      287             0.0000000000
     14660       387  TIP3      H1             -8.0059758354      -14.5167595310       32.5601982642  TIP3      287             0.0000000000
     14661       387  TIP3      H2             -8.6777503878      -13.4600881863       33.3853949971  TIP3      287             0.0000000000
     14662       388  TIP3      OH2            -7.0620535769      -18.2551762984       22.8791362100  TIP3      288             0.0000000000
     14663       388  TIP3      H1             -7.6920037036      -17.7930303777       23.4405379178  TIP3      288             0.0000000000
     14664       388  TIP3      H2             -6.4498518968      -17.5597787877       22.5880844866  TIP3      288             0.0000000000
     14665       389  TIP3      OH2             0.5285704661      -25.8321215760       33.2553150630  TIP3      289             0.0000000000
     14666       389  TIP3      H1              1.3921402610      -25.6226775670       33.6532799253  TIP3      289             0.0000000000
     14667       389  TIP3      H2              0.1829456783      -26.5223901230       33.8616298136  TIP3      289             0.0000000000
     14668       390  TIP3      OH2             1.5147691296      -26.3182166702       24.2769757913  TIP3      290             0.0000000000
     14669       390  TIP3      H1              1.2298179189      -25.4311403240       23.9896755969  TIP3      290             0.0000000000
     14670       390  TIP3      H2              1.8379990767      -26.1266441209       25.1883252113  TIP3      290             0.0000000000
     14671       391  TIP3      OH2            -1.1681636400      -13.8957968057       23.3806145464  TIP3      291             0.0000000000
     14672       391  TIP3      H1             -1.7728016715      -13.1353231154       23.3968050917  TIP3      291             0.0000000000
     14673       391  TIP3      H2             -0.2765142548      -13.5159769255       23.4191186326  TIP3      291             0.0000000000
     14674       392  TIP3      OH2            -1.4644171527      -24.2980485119       24.7360256227  TIP3      292             0.0000000000
     14675       392  TIP3      H1             -0.8823532731      -23.5598626634       25.0088158413  TIP3      292             0.0000000000
     14676       392  TIP3      H2             -1.8509306798      -24.5349883125       25.5955511334  TIP3      292             0.0000000000
     14677       393  TIP3      OH2            -0.7728361446      -23.2108677999       34.5374968221  TIP3      293             0.0000000000
     14678       393  TIP3      H1             -0.9326662898      -22.6890237092       35.3524487397  TIP3      293             0.0000000000
     14679       393  TIP3      H2             -0.5517402112      -24.1037812192       34.8594314970  TIP3      293             0.0000000000
     14680       394  TIP3      OH2            -0.7999256118      -27.3624809929       25.8825247769  TIP3      294             0.0000000000
     14681       394  TIP3      H1             -1.2837167712      -26.7742334040       26.5068818069  TIP3      294             0.0000000000
     14682       394  TIP3      H2              0.0078157525      -26.8296701721       25.7396399987  TIP3      294             0.0000000000
     14683       395  TIP3      OH2            -3.7425661884      -12.6240734960       23.2634987199  TIP3      295             0.0000000000
     14684       395  TIP3      H1             -3.5331967989      -11.7497847043       22.8956028651  TIP3      295             0.0000000000
     14685       395  TIP3      H2             -4.1424714401      -12.4335596583       24.1321574120  TIP3      295             0.0000000000
     14686       396  TIP3      OH2            -5.2427144330      -25.9171372676       22.6951250217  TIP3      296             0.0000000000
     14687       396  TIP3      H1             -5.0373444656      -24.9724498336       22.8725225792  TIP3      296             0.0000000000
     14688       396  TIP3      H2             -4.4272785379      -26.2844560819       23.0655217388  TIP3      296             0.0000000000
     14689       397  TIP3      OH2             4.8304539296      -25.3139065546       35.1370710072  TIP3      297             0.0000000000
     14690       397  TIP3      H1              3.8635832926      -25.1898327421       35.0897724541  TIP3      297             0.0000000000
     14691       397  TIP3      H2              5.0065326243      -25.5916878512       34.2163396786  TIP3      297             0.0000000000
     14692       398  TIP3      OH2             4.0345404661      -21.7122066364       29.1322266465  TIP3      298             0.0000000000
     14693       398  TIP3      H1              3.3014340002      -22.3610046841       29.1631874103  TIP3      298             0.0000000000
     14694       398  TIP3      H2              4.7412996171      -22.2172542986       29.5962365584  TIP3      298             0.0000000000
     14695       399  TIP3      OH2             4.6649212912      -12.5036240811       30.7674187126  TIP3      299             0.0000000000
     14696       399  TIP3      H1              4.5494988489      -11.9544507700       29.9682491654  TIP3      299             0.0000000000
     14697       399  TIP3      H2              5.6378832548      -12.4908293997       30.8549734839  TIP3      299             0.0000000000
     14698       400  TIP3      OH2            -7.5577834664      -27.8960524572       29.2367704922  TIP3      300             0.0000000000
     14699       400  TIP3      H1             -7.8424098839      -28.1210359010       28.3200267953  TIP3      300             0.0000000000
     14700       400  TIP3      H2             -7.6408067207      -28.7837749116       29.6410428656  TIP3      300             0.0000000000
     14701       401  TIP3      OH2            -8.9258493510      -13.8807648250       25.8599336223  TIP3      301             0.0000000000
     14702       401  TIP3      H1             -9.8733434621      -13.7341809091       25.9378171581  TIP3      301             0.0000000000
     14703       401  TIP3      H2             -8.8047940483      -13.7945700134       24.8954718079  TIP3      301             0.0000000000
     14704       402  TIP3      OH2            -9.5580066332      -11.5816152435       36.8346601556  TIP3      302             0.0000000000
     14705       402  TIP3      H1             -8.8141830194      -11.7621083426       37.4374387351  TIP3      302             0.0000000000
     14706       402  TIP3      H2            -10.0119153217      -12.4467760701       36.7966696458  TIP3      302             0.0000000000
     14707       403  TIP3      OH2            -4.7218895354      -13.0490094097       38.7826562216  TIP3      303             0.0000000000
     14708       403  TIP3      H1             -3.8549178442      -13.1943381261       39.1892929235  TIP3      303             0.0000000000
     14709       403  TIP3      H2             -4.6491599338      -13.5420748040       37.9453975504  TIP3      303             0.0000000000
     14710       404  TIP3      OH2             1.5724943388      -13.9512261692       37.4634226193  TIP3      304             0.0000000000
     14711       404  TIP3      H1              1.3150322012      -14.8533454325       37.7810996379  TIP3      304             0.0000000000
     14712       404  TIP3      H2              2.4757496867      -13.8870986388       37.8312023216  TIP3      304             0.0000000000
     14713       405  TIP3      OH2            -9.6505087192      -18.1146555796       37.8996418075  TIP3      305             0.0000000000
     14714       405  TIP3      H1            -10.0214867858      -19.0076761786       38.0070724402  TIP3      305             0.0000000000
     14715       405  TIP3      H2            -10.1645173190      -17.7875450562       37.1224563758  TIP3      305             0.0000000000
     14716       406  TIP3      OH2            -2.8088099968      -17.9706094190       36.6409252308  TIP3      306             0.0000000000
     14717       406  TIP3      H1             -3.2021808092      -17.2497986612       36.0995293340  TIP3      306             0.0000000000
     14718       406  TIP3      H2             -3.0140873465      -18.8120348481       36.1806282933  TIP3      306             0.0000000000
     14719       407  TIP3      OH2             2.8160551872      -17.9053645849       35.0586607762  TIP3      307             0.0000000000
     14720       407  TIP3      H1              3.6308744005      -17.3621802705       35.0068880307  TIP3      307             0.0000000000
     14721       407  TIP3      H2              2.1645454792      -17.1968451382       35.2303693885  TIP3      307             0.0000000000
     14722       408  TIP3      OH2            -9.0053701723      -20.9557567407       37.7878823129  TIP3      308             0.0000000000
     14723       408  TIP3      H1             -8.8318316666      -21.7988133067       38.2493525324  TIP3      308             0.0000000000
     14724       408  TIP3      H2             -8.5560277186      -20.3362465011       38.4046364807  TIP3      308             0.0000000000
     14725       409  TIP3      OH2            -4.6759954039      -21.6857916838       34.8152178381  TIP3      309             0.0000000000
     14726       409  TIP3      H1             -5.4586546270      -21.1072861118       34.6557074193  TIP3      309             0.0000000000
     14727       409  TIP3      H2             -4.0739491342      -21.3473478604       34.1237244841  TIP3      309             0.0000000000
     14728       410  TIP3      OH2             0.7573478701      -19.0354035691       38.5648592298  TIP3      310             0.0000000000
     14729       410  TIP3      H1              1.2968937844      -19.2620644827       37.7836627407  TIP3      310             0.0000000000
     14730       410  TIP3      H2              0.0786612868      -19.7315903794       38.5715643011  TIP3      310             0.0000000000
     14731       411  TIP3      OH2            -4.3237243585      -24.1260611748       35.7885379547  TIP3      311             0.0000000000
     14732       411  TIP3      H1             -4.0865728950      -24.6025983046       34.9779751211  TIP3      311             0.0000000000
     14733       411  TIP3      H2             -4.4347972425      -23.2094821401       35.4406467179  TIP3      311             0.0000000000
     14734       412  TIP3      OH2            -3.6165063275      -25.9671484904       33.3516790822  TIP3      312             0.0000000000
     14735       412  TIP3      H1             -3.2685047499      -25.5802776653       32.5240170829  TIP3      312             0.0000000000
     14736       412  TIP3      H2             -4.5736272416      -26.0284733634       33.1628986332  TIP3      312             0.0000000000
     14737       413  TIP3      OH2            -2.4955622695      -20.2907919796       33.7939723269  TIP3      313             0.0000000000
     14738       413  TIP3      H1             -2.2753309700      -20.7670503526       32.9913421472  TIP3      313             0.0000000000
     14739       413  TIP3      H2             -3.0556135235      -19.5650891801       33.4242939003  TIP3      313             0.0000000000
     14740       414  TIP3      OH2             1.3294951786      -22.4349927648       38.7495829166  TIP3      314             0.0000000000
     14741       414  TIP3      H1              1.1876479761      -23.3431455680       39.0898517770  TIP3      314             0.0000000000
     14742       414  TIP3      H2              2.2974621113      -22.4283531556       38.6248855726  TIP3      314             0.0000000000
     14743       415  TIP3      OH2             3.5845467498      -19.5886667521       36.9727404994  TIP3      315             0.0000000000
     14744       415  TIP3      H1              3.1656709839      -19.0392383015       36.2758565597  TIP3      315             0.0000000000
     14745       415  TIP3      H2              4.4910289499      -19.6836640030       36.6119388814  TIP3      315             0.0000000000
     14746       416  TIP3      OH2            -5.8099043610      -23.4440436569       38.0178512407  TIP3      316             0.0000000000
     14747       416  TIP3      H1             -6.6955167163      -23.8311679870       37.8275291005  TIP3      316             0.0000000000
     14748       416  TIP3      H2             -5.3368947418      -23.6723360325       37.1872237362  TIP3      316             0.0000000000
     14749       417  TIP3      OH2            -3.2589584096      -28.5703333011       33.5106649833  TIP3      317             0.0000000000
     14750       417  TIP3      H1             -3.0855397820      -27.6005739081       33.5564442281  TIP3      317             0.0000000000
     14751       417  TIP3      H2             -4.0674074059      -28.5417831176       32.9842225944  TIP3      317             0.0000000000
     14752       418  TIP3      OH2            -1.9204373067      -24.2416977990       37.4384781321  TIP3      318             0.0000000000
     14753       418  TIP3      H1             -2.3047274590      -24.6349663393       38.2458829213  TIP3      318             0.0000000000
     14754       418  TIP3      H2             -2.6428988067      -24.4189054059       36.8143407277  TIP3      318             0.0000000000
     14755       419  TIP3      OH2             0.6840787338      -24.7135519009       36.6158194282  TIP3      319             0.0000000000
     14756       419  TIP3      H1             -0.2171934694      -24.7316222029       36.9933606251  TIP3      319             0.0000000000
     14757       419  TIP3      H2              1.1105350646      -25.4154196469       37.1632025229  TIP3      319             0.0000000000
     14758       420  TIP3      OH2             1.8649250091      -26.4931686314       38.3608982096  TIP3      320             0.0000000000
     14759       420  TIP3      H1              2.3496600705      -27.3442469740       38.3983563834  TIP3      320             0.0000000000
     14760       420  TIP3      H2              2.0544560347      -26.0814072938       39.2236098243  TIP3      320             0.0000000000
     14761       421  TIP3      OH2            -7.8729641365      -25.1502711989       37.5896881290  TIP3      321             0.0000000000
     14762       421  TIP3      H1             -7.8403143261      -25.9494483227       37.0284839298  TIP3      321             0.0000000000
     14763       421  TIP3      H2             -8.0129755286      -25.5741085222       38.4764287441  TIP3      321             0.0000000000
     14764       422  TIP3      OH2            -3.3549689931      -28.8243443642       36.3624993318  TIP3      322             0.0000000000
     14765       422  TIP3      H1             -2.9587543038      -29.7100468847       36.5126994102  TIP3      322             0.0000000000
     14766       422  TIP3      H2             -3.4430622701      -28.8240346322       35.3920762774  TIP3      322             0.0000000000
     14767       423  TIP3      OH2            -2.3964588256      -27.1893578360       38.3118253939  TIP3      323             0.0000000000
     14768       423  TIP3      H1             -2.7035984838      -27.7164247898       37.5536805062  TIP3      323             0.0000000000
     14769       423  TIP3      H2             -3.1868969796      -26.6610623660       38.5547259030  TIP3      323             0.0000000000
     14770       424  TIP3      OH2            -2.7399203989      -10.1598530617       21.7611471984  TIP3      324             0.0000000000
     14771       424  TIP3      H1             -1.9834879409      -10.7594392477       21.5931980272  TIP3      324             0.0000000000
     14772       424  TIP3      H2             -2.3220855238       -9.4536240964       22.2855081486  TIP3      324             0.0000000000
     14773       425  TIP3      OH2            -8.9948411684      -16.2511090770       21.3927033778  TIP3      325             0.0000000000
     14774       425  TIP3      H1             -8.1096760291      -16.6457494688       21.4073749127  TIP3      325             0.0000000000
     14775       425  TIP3      H2             -9.3414552221      -16.6536495698       20.5935864174  TIP3      325             0.0000000000
     14776       426  TIP3      OH2           -10.8474286269      -10.9330388001       25.9952341066  TIP3      326             0.0000000000
     14777       426  TIP3      H1            -11.5764806930      -11.5547782382       25.7788451648  TIP3      326             0.0000000000
     14778       426  TIP3      H2            -10.4271563776      -11.4707373193       26.7038071764  TIP3      326             0.0000000000
     14779       427  TIP3      OH2           -10.1738461865      -12.3206110160       28.1045613179  TIP3      327             0.0000000000
     14780       427  TIP3      H1            -10.7246639489      -13.0624371910       28.4163755676  TIP3      327             0.0000000000
     14781       427  TIP3      H2             -9.5019232106      -12.2862534540       28.8275342675  TIP3      327             0.0000000000
     14782       428  TIP3      OH2             7.3238717883      -11.7177773884       30.7812860241  TIP3      328             0.0000000000
     14783       428  TIP3      H1              7.7972271152      -11.6104573833       31.6182089442  TIP3      328             0.0000000000
     14784       428  TIP3      H2              6.8834078334      -10.8556799002       30.6820523418  TIP3      328             0.0000000000
     14785       429  TIP3      OH2             7.0373759950      -12.2280782657       33.7619976000  TIP3      329             0.0000000000
     14786       429  TIP3      H1              6.6997387229      -13.0044984219       33.2578862738  TIP3      329             0.0000000000
     14787       429  TIP3      H2              7.3648304087      -12.6884944491       34.5569635429  TIP3      329             0.0000000000
     14788       430  TIP3      OH2             6.0572111004      -16.2286549156       38.7120759962  TIP3      330             0.0000000000
     14789       430  TIP3      H1              5.2473658422      -16.1956705442       39.2728892304  TIP3      330             0.0000000000
     14790       430  TIP3      H2              6.5347137313      -15.4195682229       39.0013134573  TIP3      330             0.0000000000
     14791       431  TIP3      OH2             7.1671347525      -18.3051136021       23.7257784775  TIP3      331             0.0000000000
     14792       431  TIP3      H1              8.1076071155      -18.1310013173       23.9264902544  TIP3      331             0.0000000000
     14793       431  TIP3      H2              6.9644328576      -18.9051153623       24.4659379130  TIP3      331             0.0000000000
     14794       432  TIP3      OH2             7.1923714906      -19.8171489733       26.0296450000  TIP3      332             0.0000000000
     14795       432  TIP3      H1              6.4294469123      -20.3263663635       26.3781519074  TIP3      332             0.0000000000
     14796       432  TIP3      H2              7.7992398564      -19.8485946118       26.8075684906  TIP3      332             0.0000000000
     14797       433  TIP3      OH2             6.9122389624      -17.3829124286       30.7174363924  TIP3      333             0.0000000000
     14798       433  TIP3      H1              7.6421937703      -18.0090894149       30.5401785674  TIP3      333             0.0000000000
     14799       433  TIP3      H2              7.3374232277      -16.5375124362       30.4687357086  TIP3      333             0.0000000000
     14800       434  TIP3      OH2             5.7245098837      -14.5021849074       33.1685585964  TIP3      334             0.0000000000
     14801       434  TIP3      H1              5.1247325126      -13.9763545960       33.7192748117  TIP3      334             0.0000000000
     14802       434  TIP3      H2              5.1577861881      -14.7255679989       32.3890952696  TIP3      334             0.0000000000
     14803       435  TIP3      OH2             5.2468620952      -21.6007318833       26.7568251274  TIP3      335             0.0000000000
     14804       435  TIP3      H1              4.5126694846      -22.1843018506       26.5033600204  TIP3      335             0.0000000000
     14805       435  TIP3      H2              4.9936832669      -21.4455884643       27.6964107546  TIP3      335             0.0000000000
     14806       436  TIP3      OH2            -9.9118930472      -19.3102476814       30.6495149771  TIP3      336             0.0000000000
     14807       436  TIP3      H1             -9.7866240224      -19.5857933672       29.7144569962  TIP3      336             0.0000000000
     14808       436  TIP3      H2             -9.0147554987      -19.5192544039       31.0090721613  TIP3      336             0.0000000000
     14809       437  TIP3      OH2             6.3069462528      -19.6077043066       36.2550831241  TIP3      337             0.0000000000
     14810       437  TIP3      H1              6.8399256760      -20.3639812270       36.6051480515  TIP3      337             0.0000000000
     14811       437  TIP3      H2              6.9831575887      -19.0721042540       35.8154488534  TIP3      337             0.0000000000
     14812       438  TIP3      OH2             7.1957836370      -21.9116311672       37.2524908335  TIP3      338             0.0000000000
     14813       438  TIP3      H1              6.3868347458      -22.2983733952       36.8507486621  TIP3      338             0.0000000000
     14814       438  TIP3      H2              7.8568938941      -22.6345116756       37.1481901313  TIP3      338             0.0000000000
     14815       439  TIP3      OH2             4.4093018509      -23.6887056511       25.1631531040  TIP3      339             0.0000000000
     14816       439  TIP3      H1              4.7989959892      -24.5881951581       25.1720392711  TIP3      339             0.0000000000
     14817       439  TIP3      H2              5.1700945489      -23.1157640583       25.3362397047  TIP3      339             0.0000000000
     14818       440  TIP3      OH2             5.7128316704      -23.2598043793       30.5801289379  TIP3      340             0.0000000000
     14819       440  TIP3      H1              6.6995501361      -23.1938852654       30.5922963994  TIP3      340             0.0000000000
     14820       440  TIP3      H2              5.5221135846      -23.2301907888       31.5324893293  TIP3      340             0.0000000000
     14821       441  TIP3      OH2             5.6579137410      -22.6803900116       33.2331087055  TIP3      341             0.0000000000
     14822       441  TIP3      H1              4.7889265473      -22.3467330781       33.5432286311  TIP3      341             0.0000000000
     14823       441  TIP3      H2              6.1228522366      -21.8429529519       33.0091153035  TIP3      341             0.0000000000
     14824       442  TIP3      OH2           -10.0528666131      -24.0953963810       36.4467059710  TIP3      342             0.0000000000
     14825       442  TIP3      H1             -9.2837857856      -24.2445940813       37.0411465231  TIP3      342             0.0000000000
     14826       442  TIP3      H2            -10.5148276626      -24.9548743825       36.5622426918  TIP3      342             0.0000000000
     14827       443  TIP3      OH2             8.0722344220      -28.9848675026       37.8356944390  TIP3      343             0.0000000000
     14828       443  TIP3      H1              8.8459377616      -28.9649598631       37.2561298866  TIP3      343             0.0000000000
     14829       443  TIP3      H2              7.8070015771      -28.0479040500       37.7704136138  TIP3      343             0.0000000000
     14830       444  TIP3      OH2             5.1679067299      -26.3728230187       25.5290075518  TIP3      344             0.0000000000
     14831       444  TIP3      H1              5.5585411470      -27.0425263940       26.1179972670  TIP3      344             0.0000000000
     14832       444  TIP3      H2              4.5384153292      -26.9132732537       24.9971154227  TIP3      344             0.0000000000
     14833       445  TIP3      OH2            -9.0800448131      -25.7736464479       29.9154792574  TIP3      345             0.0000000000
     14834       445  TIP3      H1             -8.6296979162      -26.5898793911       29.6184792121  TIP3      345             0.0000000000
     14835       445  TIP3      H2             -8.3045573001      -25.2003847801       30.0581331157  TIP3      345             0.0000000000
     14836       446  TIP3      OH2           -10.6059977550      -23.0098168639       30.9536663575  TIP3      346             0.0000000000
     14837       446  TIP3      H1            -10.1306695287      -23.2782644920       30.1345290989  TIP3      346             0.0000000000
     14838       446  TIP3      H2            -10.1204982556      -22.2002449824       31.1465731295  TIP3      346             0.0000000000
     14839       447  TIP3      OH2             7.4123070805      -26.4495429829       36.9130394935  TIP3      347             0.0000000000
     14840       447  TIP3      H1              6.5564058817      -26.2351181274       37.3276308932  TIP3      347             0.0000000000
     14841       447  TIP3      H2              7.0916446008      -26.9285684393       36.1197933753  TIP3      347             0.0000000000
     14842       448  TIP3      OH2             7.0304916315      -26.2083496032       21.9105928160  TIP3      348             0.0000000000
     14843       448  TIP3      H1              6.5408100987      -27.0426768472       21.7940225467  TIP3      348             0.0000000000
     14844       448  TIP3      H2              6.5648397500      -25.7454623299       21.1889508878  TIP3      348             0.0000000000
     14845       449  TIP3      OH2           -11.0806397812      -26.5947840437       24.1564029923  TIP3      349             0.0000000000
     14846       449  TIP3      H1            -12.0523849076      -26.6458427624       24.1362114156  TIP3      349             0.0000000000
     14847       449  TIP3      H2            -10.8774277330      -25.7547088633       23.6879416362  TIP3      349             0.0000000000
     14848       450  TIP3      OH2             4.5759745250      -11.4357898511       26.8075909511  TIP3      350             0.0000000000
     14849       450  TIP3      H1              5.1576598879      -11.9383890067       26.2012745052  TIP3      350             0.0000000000
     14850       450  TIP3      H2              5.1762382245      -11.1235104933       27.5025824151  TIP3      350             0.0000000000
     14851       451  TIP3      OH2           -10.3808522341      -28.0961059236       32.7553678361  TIP3      351             0.0000000000
     14852       451  TIP3      H1            -10.6601395344      -27.8806821612       33.6589753225  TIP3      351             0.0000000000
     14853       451  TIP3      H2            -10.7326841326      -27.3460998917       32.2463583209  TIP3      351             0.0000000000
     14854       452  TIP3      OH2            -7.8796570239      -14.8533579363       37.3928122430  TIP3      352             0.0000000000
     14855       452  TIP3      H1             -8.7022959245      -14.5830259132       36.9527412825  TIP3      352             0.0000000000
     14856       452  TIP3      H2             -8.1115619039      -14.8300871350       38.3374493442  TIP3      352             0.0000000000
     14857       453  TIP3      OH2            -5.2123269788      -13.0823078597       33.9336253893  TIP3      353             0.0000000000
     14858       453  TIP3      H1             -5.2718911057      -12.2707391584       33.3905049433  TIP3      353             0.0000000000
     14859       453  TIP3      H2             -4.3257512426      -13.3889948598       33.6622088635  TIP3      353             0.0000000000
     14860       454  TIP3      OH2            -1.2347449090      -12.1790946329       36.5310328241  TIP3      354             0.0000000000
     14861       454  TIP3      H1             -0.9732158519      -12.4687173143       37.4307250344  TIP3      354             0.0000000000
     14862       454  TIP3      H2             -0.4158496859      -11.7400407775       36.2401488616  TIP3      354             0.0000000000
     14863       455  TIP3      OH2             0.9597256917      -10.5274690468       35.8687040992  TIP3      355             0.0000000000
     14864       455  TIP3      H1              1.7704685370      -10.9007505881       35.4904448119  TIP3      355             0.0000000000
     14865       455  TIP3      H2              1.2517254508      -10.2053958877       36.7476345474  TIP3      355             0.0000000000
     14866       456  TIP3      OH2             6.5720475185      -28.3790783673       34.9677728556  TIP3      356             0.0000000000
     14867       456  TIP3      H1              5.8580132994      -28.0605766274       34.4020131641  TIP3      356             0.0000000000
     14868       456  TIP3      H2              6.4526052328      -29.3508343178       34.9816170591  TIP3      356             0.0000000000
     14869       457  TIP3      OH2            -7.9158210321      -10.5055905105       33.2524896149  TIP3      357             0.0000000000
     14870       457  TIP3      H1             -8.5928009713       -9.8186306182       33.0977468815  TIP3      357             0.0000000000
     14871       457  TIP3      H2             -7.9503519940      -10.6262896249       34.2098086769  TIP3      357             0.0000000000
     14872       458  TIP3      OH2            -5.3690401704      -10.8027215784       32.4066462087  TIP3      358             0.0000000000
     14873       458  TIP3      H1             -6.3402620710      -10.7381707177       32.5810751021  TIP3      358             0.0000000000
     14874       458  TIP3      H2             -5.2661438662      -10.0723625949       31.7623533584  TIP3      358             0.0000000000
     14875       459  TIP3      OH2            -0.9357420259      -11.3396493390       31.6548100278  TIP3      359             0.0000000000
     14876       459  TIP3      H1             -1.5100458829      -10.9241127010       30.9850181397  TIP3      359             0.0000000000
     14877       459  TIP3      H2             -0.7417907987      -10.5855548450       32.2457412634  TIP3      359             0.0000000000
     14878       460  TIP3      OH2             1.3036859357      -12.4674207825       33.1856082215  TIP3      360             0.0000000000
     14879       460  TIP3      H1              0.6776534518      -12.1598554626       32.5003377848  TIP3      360             0.0000000000
     14880       460  TIP3      H2              2.0446842583      -11.8393251468       33.0359104978  TIP3      360             0.0000000000
     14881       461  TIP3      OH2             3.5218575908      -10.9812509320       32.6992723121  TIP3      361             0.0000000000
     14882       461  TIP3      H1              3.7494542016      -10.1045888192       32.3414890556  TIP3      361             0.0000000000
     14883       461  TIP3      H2              3.8828719680      -11.5327842620       31.9677545964  TIP3      361             0.0000000000
     14884       462  TIP3      OH2            -8.5913123292      -12.1278849444       30.3539013987  TIP3      362             0.0000000000
     14885       462  TIP3      H1             -8.7591650438      -12.5595084480       31.2310154517  TIP3      362             0.0000000000
     14886       462  TIP3      H2             -7.6318381491      -12.3366416381       30.2300896016  TIP3      362             0.0000000000
     14887       463  TIP3      OH2            -6.2105985434      -12.7632518737       29.3398907291  TIP3      363             0.0000000000
     14888       463  TIP3      H1             -6.3999437413      -13.7178130737       29.2618910287  TIP3      363             0.0000000000
     14889       463  TIP3      H2             -5.3356161812      -12.8429871912       29.7862390641  TIP3      363             0.0000000000
     14890       464  TIP3      OH2            -3.9315297366      -13.0806140301       30.7346576620  TIP3      364             0.0000000000
     14891       464  TIP3      H1             -3.3444697477      -13.8392108082       30.5549821821  TIP3      364             0.0000000000
     14892       464  TIP3      H2             -3.6236432588      -12.8318300932       31.6252280955  TIP3      364             0.0000000000
     14893       465  TIP3      OH2             0.3194861227      -27.3266965809       28.8773075841  TIP3      365             0.0000000000
     14894       465  TIP3      H1             -0.6410985046      -27.4045190979       28.7810782562  TIP3      365             0.0000000000
     14895       465  TIP3      H2              0.5221932839      -28.1608092009       29.3358021920  TIP3      365             0.0000000000
     14896       466  TIP3      OH2             4.6474891987      -28.0286562564       29.2384680569  TIP3      366             0.0000000000
     14897       466  TIP3      H1              5.4357610068      -28.0837570731       28.6647421810  TIP3      366             0.0000000000
     14898       466  TIP3      H2              3.9126151232      -28.2274078090       28.6079773735  TIP3      366             0.0000000000
     14899       467  TIP3      OH2             6.9914827452      -27.7009270523       27.2952735753  TIP3      367             0.0000000000
     14900       467  TIP3      H1              7.3609345157      -27.5824299202       26.3893632873  TIP3      367             0.0000000000
     14901       467  TIP3      H2              7.3588820710      -26.8701874150       27.6613819042  TIP3      367             0.0000000000
     14902       468  TIP3      OH2            -8.0202159182      -28.6752893545       26.7368092268  TIP3      368             0.0000000000
     14903       468  TIP3      H1             -8.3764141362      -28.8454750570       25.8503339300  TIP3      368             0.0000000000
     14904       468  TIP3      H2             -7.7996631359      -29.5942088062       27.0160241021  TIP3      368             0.0000000000
     14905       469  TIP3      OH2            -9.1277198746      -28.3198282671       22.8921339730  TIP3      369             0.0000000000
     14906       469  TIP3      H1             -9.0081688567      -27.9311634399       22.0050857114  TIP3      369             0.0000000000
     14907       469  TIP3      H2             -9.8247346066      -27.7682573502       23.2936252966  TIP3      369             0.0000000000
     14908       470  TIP3      OH2            -3.6120307726      -28.0935828140       26.7137710005  TIP3      370             0.0000000000
     14909       470  TIP3      H1             -2.7376953036      -28.2773294507       26.3412267934  TIP3      370             0.0000000000
     14910       470  TIP3      H2             -3.4091661728      -28.0741025065       27.6687515339  TIP3      370             0.0000000000
     14911       471  TIP3      OH2             2.6407722656      -28.6652675730       27.6217730311  TIP3      371             0.0000000000
     14912       471  TIP3      H1              1.7721858563      -28.2756325625       27.4354862590  TIP3      371             0.0000000000
     14913       471  TIP3      H2              2.3685150236      -29.6014996703       27.7941500142  TIP3      371             0.0000000000
     14914       472  TIP3      OH2             3.7241821290      -27.9842425779       23.9717451764  TIP3      372             0.0000000000
     14915       472  TIP3      H1              2.8604422479      -27.5219360893       23.8985187284  TIP3      372             0.0000000000
     14916       472  TIP3      H2              3.4474693387      -28.8782136719       24.2471825636  TIP3      372             0.0000000000
     14917       473  TIP3      OH2            -9.7393306553      -12.8346087754       23.4055232103  TIP3      373             0.0000000000
     14918       473  TIP3      H1            -10.6732862605      -12.6792474320       23.6314481106  TIP3      373             0.0000000000
     14919       473  TIP3      H2             -9.4030940403      -11.9194354026       23.3026708265  TIP3      373             0.0000000000
     14920       474  TIP3      OH2            -7.8086533145      -26.5346387269       21.3386444741  TIP3      374             0.0000000000
     14921       474  TIP3      H1             -6.9099585606      -26.4786218950       21.0224099730  TIP3      374             0.0000000000
     14922       474  TIP3      H2             -7.7214315740      -26.3595069773       22.2895849917  TIP3      374             0.0000000000
     14923       475  TIP3      OH2            -2.1633566189      -26.8685144178       23.4338274935  TIP3      375             0.0000000000
     14924       475  TIP3      H1             -1.6352986167      -27.1748954857       24.1930732337  TIP3      375             0.0000000000
     14925       475  TIP3      H2             -2.0986874893      -25.9096799767       23.6184164258  TIP3      375             0.0000000000
     14926       476  TIP3      OH2            -0.3420052691      -11.4174491186       22.2716253490  TIP3      376             0.0000000000
     14927       476  TIP3      H1              0.5459741882      -11.0761681353       22.0418978666  TIP3      376             0.0000000000
     14928       476  TIP3      H2             -0.3194024805      -12.1001883405       21.5784935932  TIP3      376             0.0000000000
     14929       477  TIP3      OH2             6.1274889638      -12.4593947767       24.8255797439  TIP3      377             0.0000000000
     14930       477  TIP3      H1              5.9554044531      -13.2383525046       24.2466424291  TIP3      377             0.0000000000
     14931       477  TIP3      H2              5.9212179381      -11.7207771039       24.2151121278  TIP3      377             0.0000000000
     14932       478  TIP3      OH2            -8.0493426131      -27.7489812968       36.2023616044  TIP3      378             0.0000000000
     14933       478  TIP3      H1             -8.3950867564      -28.6429134306       35.9759642599  TIP3      378             0.0000000000
     14934       478  TIP3      H2             -7.3733400421      -27.9907696145       36.8728011011  TIP3      378             0.0000000000
     14935       479  TIP3      OH2            -6.0475753629      -28.1790112687       38.0422534492  TIP3      379             0.0000000000
     14936       479  TIP3      H1             -5.1612353908      -28.1199044183       37.6479045261  TIP3      379             0.0000000000
     14937       479  TIP3      H2             -6.1077653600      -29.1415792102       38.2278714546  TIP3      379             0.0000000000
     14938       480  TIP3      OH2             2.4293082593      -29.0961938224       37.9264498907  TIP3      380             0.0000000000
     14939       480  TIP3      H1              1.8377590613      -29.8061430035       38.2324468844  TIP3      380             0.0000000000
     14940       480  TIP3      H2              3.2523104816      -29.5715777522       37.7624938963  TIP3      380             0.0000000000
     14941       481  TIP3      OH2             5.7317245927      -12.9458331996       36.7772393175  TIP3      381             0.0000000000
     14942       481  TIP3      H1              5.1507619247      -12.9679713975       35.9786058162  TIP3      381             0.0000000000
     14943       481  TIP3      H2              5.4598123729      -12.0796508629       37.1357664201  TIP3      381             0.0000000000
     14944       482  TIP3      OH2            20.1433904030      -19.2773608696       26.9146614408  TIP3      382             0.0000000000
     14945       482  TIP3      H1             20.3432066652      -18.3971672178       27.2822652610  TIP3      382             0.0000000000
     14946       482  TIP3      H2             19.3850448625      -19.0262395588       26.3610623646  TIP3      382             0.0000000000
     14947       483  TIP3      OH2            19.2062228868      -20.5051466389       30.2545869028  TIP3      383             0.0000000000
     14948       483  TIP3      H1             19.2737995519      -20.9292956253       31.1351332900  TIP3      383             0.0000000000
     14949       483  TIP3      H2             18.5045228342      -20.9933490157       29.7949421208  TIP3      383             0.0000000000
     14950       484  TIP3      OH2            11.0185462461      -20.5920986216       31.5519514836  TIP3      384             0.0000000000
     14951       484  TIP3      H1             10.9313720671      -21.3309945586       32.1835789800  TIP3      384             0.0000000000
     14952       484  TIP3      H2             11.9028064961      -20.2666616571       31.7969967597  TIP3      384             0.0000000000
     14953       485  TIP3      OH2            21.8504568906      -17.1889188752       29.1059099180  TIP3      385             0.0000000000
     14954       485  TIP3      H1             21.8758373719      -17.9252938842       29.7386288076  TIP3      385             0.0000000000
     14955       485  TIP3      H2             22.2090143292      -16.4707541683       29.6454142333  TIP3      385             0.0000000000
     14956       486  TIP3      OH2            12.2424458870      -15.6713225120       29.9498568084  TIP3      386             0.0000000000
     14957       486  TIP3      H1             11.9772345987      -16.6072917027       29.8436996354  TIP3      386             0.0000000000
     14958       486  TIP3      H2             13.1968662759      -15.7673800576       29.7544439911  TIP3      386             0.0000000000
     14959       487  TIP3      OH2             9.0341022487      -22.2495382278       25.6901825406  TIP3      387             0.0000000000
     14960       487  TIP3      H1              8.3470165130      -21.7198630406       26.1138150046  TIP3      387             0.0000000000
     14961       487  TIP3      H2              8.5373749323      -22.5570786095       24.9110295496  TIP3      387             0.0000000000
     14962       488  TIP3      OH2             8.9315787786      -20.1338203632       28.0413041511  TIP3      388             0.0000000000
     14963       488  TIP3      H1              9.3512144731      -21.0166758005       28.1551130779  TIP3      388             0.0000000000
     14964       488  TIP3      H2              9.7047408896      -19.5552606905       27.9216864147  TIP3      388             0.0000000000
     14965       489  TIP3      OH2            19.8283425239      -11.7637691687       28.9455717111  TIP3      389             0.0000000000
     14966       489  TIP3      H1             20.6793383415      -12.2126016851       28.8078226142  TIP3      389             0.0000000000
     14967       489  TIP3      H2             19.3150126622      -12.5034786817       29.2980083615  TIP3      389             0.0000000000
     14968       490  TIP3      OH2            16.8822820507      -17.1939444703       31.3488498462  TIP3      390             0.0000000000
     14969       490  TIP3      H1             17.2567931013      -17.5839719345       30.5477125880  TIP3      390             0.0000000000
     14970       490  TIP3      H2             17.6987541962      -17.1148747809       31.8847925182  TIP3      390             0.0000000000
     14971       491  TIP3      OH2            25.6554302535      -26.4789115807       31.5532197365  TIP3      391             0.0000000000
     14972       491  TIP3      H1             25.9456906680      -25.6606140396       32.0204262663  TIP3      391             0.0000000000
     14973       491  TIP3      H2             26.0400705320      -26.3918319343       30.6703775562  TIP3      391             0.0000000000
     14974       492  TIP3      OH2            20.9389970981      -23.1947374261       31.1944097822  TIP3      392             0.0000000000
     14975       492  TIP3      H1             20.8567575494      -24.1515067848       31.3630864041  TIP3      392             0.0000000000
     14976       492  TIP3      H2             20.9762577712      -23.2315563711       30.2166011768  TIP3      392             0.0000000000
     14977       493  TIP3      OH2            13.6095240829      -25.0830809792       27.9905128590  TIP3      393             0.0000000000
     14978       493  TIP3      H1             13.7726482863      -24.3404718113       27.3821546349  TIP3      393             0.0000000000
     14979       493  TIP3      H2             13.0903689647      -25.6665991214       27.3840955467  TIP3      393             0.0000000000
     14980       494  TIP3      OH2            21.1318772530      -25.2251020062       27.0908309396  TIP3      394             0.0000000000
     14981       494  TIP3      H1             21.7125092908      -25.5090704319       27.8400595236  TIP3      394             0.0000000000
     14982       494  TIP3      H2             21.6653905188      -24.4815864997       26.7747151070  TIP3      394             0.0000000000
     14983       495  TIP3      OH2            10.2459811313      -22.4501562514       28.9245841127  TIP3      395             0.0000000000
     14984       495  TIP3      H1             10.9316309612      -22.7661037121       29.5421451511  TIP3      395             0.0000000000
     14985       495  TIP3      H2             10.4446831875      -22.9775044128       28.1317277743  TIP3      395             0.0000000000
     14986       496  TIP3      OH2            14.7935386700      -21.2547230737       28.5368231921  TIP3      396             0.0000000000
     14987       496  TIP3      H1             15.7389639735      -21.4774781977       28.4269654152  TIP3      396             0.0000000000
     14988       496  TIP3      H2             14.3829892042      -21.9898901318       28.0389487820  TIP3      396             0.0000000000
     14989       497  TIP3      OH2            26.3041456875      -24.6111892993       33.4969078671  TIP3      397             0.0000000000
     14990       497  TIP3      H1             25.8670460868      -23.7670401811       33.2821455254  TIP3      397             0.0000000000
     14991       497  TIP3      H2             26.4670536498      -24.4605975707       34.4505793100  TIP3      397             0.0000000000
     14992       498  TIP3      OH2            12.7631912014      -26.3402186641       32.2648553357  TIP3      398             0.0000000000
     14993       498  TIP3      H1             12.2837036219      -25.8982410462       31.5376444743  TIP3      398             0.0000000000
     14994       498  TIP3      H2             12.0718834932      -26.2698658480       32.9555695430  TIP3      398             0.0000000000
     14995       499  TIP3      OH2            19.5073798353      -16.7531153266       25.9768877611  TIP3      399             0.0000000000
     14996       499  TIP3      H1             19.4026107933      -16.8140646667       25.0078797230  TIP3      399             0.0000000000
     14997       499  TIP3      H2             19.4680500993      -15.7939739547       26.1216636293  TIP3      399             0.0000000000
     14998       500  TIP3      OH2            14.8193391919      -18.5594905248       32.3012124671  TIP3      400             0.0000000000
     14999       500  TIP3      H1             14.1605105983      -17.8361393841       32.4190673103  TIP3      400             0.0000000000
     15000       500  TIP3      H2             15.5831580756      -18.0270837637       31.9702724351  TIP3      400             0.0000000000
     15001       501  TIP3      OH2            23.1306363655      -25.4347637009       28.8197272195  TIP3      401             0.0000000000
     15002       501  TIP3      H1             23.2298166409      -26.3017291090       29.2783416487  TIP3      401             0.0000000000
     15003       501  TIP3      H2             23.7078321837      -24.8755907047       29.3774965182  TIP3      401             0.0000000000
     15004       502  TIP3      OH2            12.2067081919      -24.1943983774       30.1169599092  TIP3      402             0.0000000000
     15005       502  TIP3      H1             12.8178406623      -23.5497779311       30.5364805098  TIP3      402             0.0000000000
     15006       502  TIP3      H2             12.7412630939      -24.5256684604       29.3484776149  TIP3      402             0.0000000000
     15007       503  TIP3      OH2            13.4656334743      -16.3590469152       33.0572686588  TIP3      403             0.0000000000
     15008       503  TIP3      H1             13.1780091058      -15.9704370942       32.2213798239  TIP3      403             0.0000000000
     15009       503  TIP3      H2             12.6256878920      -16.3049386454       33.5800977369  TIP3      403             0.0000000000
     15010       504  TIP3      OH2             9.6192975976      -17.0872319742       24.0212611197  TIP3      404             0.0000000000
     15011       504  TIP3      H1              8.9843281330      -16.6837398503       23.4128048350  TIP3      404             0.0000000000
     15012       504  TIP3      H2              9.6208644773      -16.4329177005       24.7569902754  TIP3      404             0.0000000000
     15013       505  TIP3      OH2            23.0634899002      -15.2411257847       31.2462001021  TIP3      405             0.0000000000
     15014       505  TIP3      H1             22.0995612876      -15.0725020977       31.3532911088  TIP3      405             0.0000000000
     15015       505  TIP3      H2             23.2631323546      -14.4975363247       30.6529069662  TIP3      405             0.0000000000
     15016       506  TIP3      OH2            22.7440375689      -26.5791793777       32.6362184114  TIP3      406             0.0000000000
     15017       506  TIP3      H1             22.0800948101      -26.1114022086       32.0832224971  TIP3      406             0.0000000000
     15018       506  TIP3      H2             23.4671419514      -26.7057805236       31.9924999504  TIP3      406             0.0000000000
     15019       507  TIP3      OH2            16.3636081788      -28.3669458134       29.1137712992  TIP3      407             0.0000000000
     15020       507  TIP3      H1             16.7125649170      -29.0025345131       29.7648536534  TIP3      407             0.0000000000
     15021       507  TIP3      H2             15.6882506937      -27.9110470343       29.6770945534  TIP3      407             0.0000000000
     15022       508  TIP3      OH2            21.8215606882      -13.6555142772       28.0191526036  TIP3      408             0.0000000000
     15023       508  TIP3      H1             21.6104024245      -14.2981062190       27.3207784557  TIP3      408             0.0000000000
     15024       508  TIP3      H2             22.5071830437      -13.1171470677       27.5564674418  TIP3      408             0.0000000000
     15025       509  TIP3      OH2            22.3816820476      -15.7767090134       25.9169421942  TIP3      409             0.0000000000
     15026       509  TIP3      H1             22.3908781179      -16.5496599279       25.3014244608  TIP3      409             0.0000000000
     15027       509  TIP3      H2             22.2697420784      -16.1954973441       26.7885817841  TIP3      409             0.0000000000
     15028       510  TIP3      OH2            24.0784379261      -16.8851675317       34.6391488424  TIP3      410             0.0000000000
     15029       510  TIP3      H1             24.2202911464      -17.5700261986       33.9437709144  TIP3      410             0.0000000000
     15030       510  TIP3      H2             24.1612846756      -16.0668919389       34.0950999346  TIP3      410             0.0000000000
     15031       511  TIP3      OH2            18.6506903295      -20.3412096563       23.7737642164  TIP3      411             0.0000000000
     15032       511  TIP3      H1             17.9477979145      -19.7460597768       24.1031579900  TIP3      411             0.0000000000
     15033       511  TIP3      H2             19.2603712838      -19.7233932565       23.3484741331  TIP3      411             0.0000000000
     15034       512  TIP3      OH2            26.2242342689      -20.3799494876       32.5983455806  TIP3      412             0.0000000000
     15035       512  TIP3      H1             25.5826272068      -19.6432629167       32.6393165114  TIP3      412             0.0000000000
     15036       512  TIP3      H2             26.7268665478      -20.1721323186       31.7817261708  TIP3      412             0.0000000000
     15037       513  TIP3      OH2            22.0846863768      -20.6681918168       25.6626079670  TIP3      413             0.0000000000
     15038       513  TIP3      H1             21.3701208453      -20.1697710642       26.1347076337  TIP3      413             0.0000000000
     15039       513  TIP3      H2             22.6720242015      -20.8642557068       26.4037927781  TIP3      413             0.0000000000
     15040       514  TIP3      OH2            22.2100485363      -21.1143006941       34.3022697129  TIP3      414             0.0000000000
     15041       514  TIP3      H1             21.9776531898      -20.2414358778       34.6475903139  TIP3      414             0.0000000000
     15042       514  TIP3      H2             21.4713585658      -21.2420723706       33.6816257018  TIP3      414             0.0000000000
     15043       515  TIP3      OH2            13.9690401929      -19.1499275175       27.1279571426  TIP3      415             0.0000000000
     15044       515  TIP3      H1             13.8685010381      -19.5131955150       26.2279843637  TIP3      415             0.0000000000
     15045       515  TIP3      H2             14.4413628555      -19.8720269977       27.5898325709  TIP3      415             0.0000000000
     15046       516  TIP3      OH2            14.9258797900      -16.0464973547       29.8660562324  TIP3      416             0.0000000000
     15047       516  TIP3      H1             15.0740460537      -15.9912113594       28.9021670590  TIP3      416             0.0000000000
     15048       516  TIP3      H2             15.7228371554      -16.4686444138       30.2421706701  TIP3      416             0.0000000000
     15049       517  TIP3      OH2            13.8027625572      -20.5721185137       30.9896115576  TIP3      417             0.0000000000
     15050       517  TIP3      H1             14.1369662088      -20.4905159920       30.0732869480  TIP3      417             0.0000000000
     15051       517  TIP3      H2             14.3415211674      -19.8927396138       31.4603362377  TIP3      417             0.0000000000
     15052       518  TIP3      OH2            20.4606267433      -14.7954515465       31.5716820596  TIP3      418             0.0000000000
     15053       518  TIP3      H1             20.2839823127      -14.1442869493       32.2721626205  TIP3      418             0.0000000000
     15054       518  TIP3      H2             20.0338175627      -15.5952033822       31.9432454154  TIP3      418             0.0000000000
     15055       519  TIP3      OH2            15.2866080859      -15.9880892270       35.0918426819  TIP3      419             0.0000000000
     15056       519  TIP3      H1             14.6054017177      -15.4297710307       35.5308629058  TIP3      419             0.0000000000
     15057       519  TIP3      H2             14.8333949861      -16.1235022104       34.2359297365  TIP3      419             0.0000000000
     15058       520  TIP3      OH2            21.4231586777      -20.9412515744       22.9677147669  TIP3      420             0.0000000000
     15059       520  TIP3      H1             21.5848104723      -20.8675857485       23.9380534964  TIP3      420             0.0000000000
     15060       520  TIP3      H2             21.8976392068      -20.1795399945       22.6038367089  TIP3      420             0.0000000000
     15061       521  TIP3      OH2            12.0853553867      -19.8718542136       34.2725831655  TIP3      421             0.0000000000
     15062       521  TIP3      H1             12.4071789927      -19.0092403988       34.5595968800  TIP3      421             0.0000000000
     15063       521  TIP3      H2             11.3454737835      -20.0290305556       34.8848817194  TIP3      421             0.0000000000
     15064       522  TIP3      OH2            19.2711941958      -13.9198187209       26.9256221871  TIP3      422             0.0000000000
     15065       522  TIP3      H1             19.7338692106      -13.5025599164       27.6653261161  TIP3      422             0.0000000000
     15066       522  TIP3      H2             18.5040161938      -13.3451582307       26.7950907556  TIP3      422             0.0000000000
     15067       523  TIP3      OH2            13.3097860788      -14.3635468482       36.3125657863  TIP3      423             0.0000000000
     15068       523  TIP3      H1             13.0951141987      -13.9254985856       35.4564416041  TIP3      423             0.0000000000
     15069       523  TIP3      H2             12.4143901554      -14.4677898024       36.7075823117  TIP3      423             0.0000000000
     15070       524  TIP3      OH2            24.9233048185      -28.8404869840       23.1164991981  TIP3      424             0.0000000000
     15071       524  TIP3      H1             24.2642683414      -28.6215980645       23.8053032666  TIP3      424             0.0000000000
     15072       524  TIP3      H2             24.3928178370      -28.6288868479       22.3307467060  TIP3      424             0.0000000000
     15073       525  TIP3      OH2            12.5626512592      -20.1616233227       24.6229020272  TIP3      425             0.0000000000
     15074       525  TIP3      H1             11.9722096428      -19.4151169544       24.8256725959  TIP3      425             0.0000000000
     15075       525  TIP3      H2             12.1350926559      -20.9187244483       25.0397149576  TIP3      425             0.0000000000
     15076       526  TIP3      OH2             9.0153409043      -17.6049559761       33.4808036383  TIP3      426             0.0000000000
     15077       526  TIP3      H1              8.6268578126      -17.7053909282       32.5947243151  TIP3      426             0.0000000000
     15078       526  TIP3      H2              9.3806354561      -18.5034561413       33.6034825622  TIP3      426             0.0000000000
     15079       527  TIP3      OH2             8.6571716190      -15.0719539366       30.4526891666  TIP3      427             0.0000000000
     15080       527  TIP3      H1              9.3680253546      -15.5412197645       30.9037376537  TIP3      427             0.0000000000
     15081       527  TIP3      H2              8.7312655875      -14.2127839700       30.8893632055  TIP3      427             0.0000000000
     15082       528  TIP3      OH2            26.7724705059      -14.0547995790       35.8311188256  TIP3      428             0.0000000000
     15083       528  TIP3      H1             27.0036414424      -14.9367021669       36.1463313213  TIP3      428             0.0000000000
     15084       528  TIP3      H2             25.9626605088      -13.8434530266       36.3601195056  TIP3      428             0.0000000000
     15085       529  TIP3      OH2            17.6963959904      -14.7590515953       35.0280211446  TIP3      429             0.0000000000
     15086       529  TIP3      H1             17.7744159616      -13.9799281393       35.6153317053  TIP3      429             0.0000000000
     15087       529  TIP3      H2             16.7665239400      -15.0492808426       35.1650001759  TIP3      429             0.0000000000
     15088       530  TIP3      OH2            18.0098953585      -11.1145232332       24.5861516956  TIP3      430             0.0000000000
     15089       530  TIP3      H1             17.7934175973      -11.0394597850       23.6497031149  TIP3      430             0.0000000000
     15090       530  TIP3      H2             18.2989797737      -10.2179948735       24.8473295003  TIP3      430             0.0000000000
     15091       531  TIP3      OH2            11.7106095796      -12.2329373275       26.8611878754  TIP3      431             0.0000000000
     15092       531  TIP3      H1             12.2302500956      -12.3324973055       27.6874544401  TIP3      431             0.0000000000
     15093       531  TIP3      H2             10.8360525772      -12.4882129058       27.2080508718  TIP3      431             0.0000000000
     15094       532  TIP3      OH2            21.8805073205      -11.7773604115       22.3224600756  TIP3      432             0.0000000000
     15095       532  TIP3      H1             21.1718164029      -12.0709984393       21.7264577561  TIP3      432             0.0000000000
     15096       532  TIP3      H2             21.4843280967      -12.0745644683       23.1668918911  TIP3      432             0.0000000000
     15097       533  TIP3      OH2            20.6725892017      -11.9688563159       24.6841262220  TIP3      433             0.0000000000
     15098       533  TIP3      H1             19.6991391822      -11.9151516835       24.7029928989  TIP3      433             0.0000000000
     15099       533  TIP3      H2             20.8359245538      -12.8453845895       25.0677633959  TIP3      433             0.0000000000
     15100       534  TIP3      OH2            23.5937441466      -22.6121852915       36.4882868472  TIP3      434             0.0000000000
     15101       534  TIP3      H1             23.2436404986      -22.0573204294       35.7601985589  TIP3      434             0.0000000000
     15102       534  TIP3      H2             23.6531283429      -23.4684346952       36.0372811752  TIP3      434             0.0000000000
     15103       535  TIP3      OH2            11.2838682362      -16.3199764814       34.5170840543  TIP3      435             0.0000000000
     15104       535  TIP3      H1             11.3754774501      -16.8022621958       35.3677697223  TIP3      435             0.0000000000
     15105       535  TIP3      H2             10.4350678608      -16.6772708293       34.1761112259  TIP3      435             0.0000000000
     15106       536  TIP3      OH2            14.2500929636      -27.2698586709       30.3941381619  TIP3      436             0.0000000000
     15107       536  TIP3      H1             13.4638468540      -27.0391820416       29.8640947235  TIP3      436             0.0000000000
     15108       536  TIP3      H2             13.9308925103      -26.9934290748       31.2888339892  TIP3      436             0.0000000000
     15109       537  TIP3      OH2            18.5753399350      -28.1807203582       34.4517379640  TIP3      437             0.0000000000
     15110       537  TIP3      H1             18.8550837440      -29.1158568114       34.3655539507  TIP3      437             0.0000000000
     15111       537  TIP3      H2             17.9230611492      -28.0858441723       33.7426660321  TIP3      437             0.0000000000
     15112       538  TIP3      OH2            21.4078664117      -24.1897353107       34.3653571749  TIP3      438             0.0000000000
     15113       538  TIP3      H1             20.9635107124      -24.5143577882       35.1801999172  TIP3      438             0.0000000000
     15114       538  TIP3      H2             21.0347985298      -23.3080360239       34.2526394843  TIP3      438             0.0000000000
     15115       539  TIP3      OH2            14.0125399389      -23.0666129937       31.9313653276  TIP3      439             0.0000000000
     15116       539  TIP3      H1             13.2083140916      -22.9816048215       32.4835345285  TIP3      439             0.0000000000
     15117       539  TIP3      H2             14.0271636323      -22.1646663956       31.5386400693  TIP3      439             0.0000000000
     15118       540  TIP3      OH2            13.8536466748      -22.8564626780       26.3489785935  TIP3      440             0.0000000000
     15119       540  TIP3      H1             12.8940232168      -23.0664556707       26.3025266952  TIP3      440             0.0000000000
     15120       540  TIP3      H2             14.1251898375      -22.9428154006       25.4106398955  TIP3      440             0.0000000000
     15121       541  TIP3      OH2            19.4716672102      -22.6270739748       25.0939418208  TIP3      441             0.0000000000
     15122       541  TIP3      H1             19.3230977979      -21.7259166046       24.7190179632  TIP3      441             0.0000000000
     15123       541  TIP3      H2             20.2653175191      -22.9277715686       24.6235201736  TIP3      441             0.0000000000
     15124       542  TIP3      OH2            18.0492773116      -21.6913152963       36.9795563862  TIP3      442             0.0000000000
     15125       542  TIP3      H1             17.7188059326      -22.5942933735       37.2059091651  TIP3      442             0.0000000000
     15126       542  TIP3      H2             18.9349405356      -21.7626004725       37.3629050601  TIP3      442             0.0000000000
     15127       543  TIP3      OH2            20.3199996851      -22.8984398407       28.5609389089  TIP3      443             0.0000000000
     15128       543  TIP3      H1             20.0767799741      -22.1325339848       28.0061695640  TIP3      443             0.0000000000
     15129       543  TIP3      H2             20.2932959285      -23.6354346001       27.9217576592  TIP3      443             0.0000000000
     15130       544  TIP3      OH2            11.3378433714      -22.9461124970       33.1160899395  TIP3      444             0.0000000000
     15131       544  TIP3      H1             11.5481585413      -22.7465689347       34.0409829220  TIP3      444             0.0000000000
     15132       544  TIP3      H2             10.9438513124      -23.8376307862       33.1569994968  TIP3      444             0.0000000000
     15133       545  TIP3      OH2             8.4144725643      -25.4038522219       27.4216537390  TIP3      445             0.0000000000
     15134       545  TIP3      H1              9.0466579084      -25.5109477312       28.1613258753  TIP3      445             0.0000000000
     15135       545  TIP3      H2              8.8692634089      -25.7512022843       26.6392434277  TIP3      445             0.0000000000
     15136       546  TIP3      OH2             9.6000688530      -25.0073024085       23.5330215978  TIP3      446             0.0000000000
     15137       546  TIP3      H1             10.0456229365      -25.0815735708       22.6657704846  TIP3      446             0.0000000000
     15138       546  TIP3      H2              9.0684919622      -24.2070127559       23.4413597031  TIP3      446             0.0000000000
     15139       547  TIP3      OH2            19.6481733787      -21.4137815580       32.8494154708  TIP3      447             0.0000000000
     15140       547  TIP3      H1             20.1715075254      -22.0951518447       32.3630733425  TIP3      447             0.0000000000
     15141       547  TIP3      H2             19.0136312518      -21.9641125842       33.3671106542  TIP3      447             0.0000000000
     15142       548  TIP3      OH2            16.8767144716      -25.7250130966       27.6867922392  TIP3      448             0.0000000000
     15143       548  TIP3      H1             15.9680794178      -26.0785755347       27.6048182881  TIP3      448             0.0000000000
     15144       548  TIP3      H2             16.8155262646      -25.2953890063       28.5520875980  TIP3      448             0.0000000000
     15145       549  TIP3      OH2            11.3414667978      -23.6627241576       26.4769257703  TIP3      449             0.0000000000
     15146       549  TIP3      H1             10.4870264962      -23.4589184573       26.0534664164  TIP3      449             0.0000000000
     15147       549  TIP3      H2             11.4425643128      -24.6162851144       26.2694623386  TIP3      449             0.0000000000
     15148       550  TIP3      OH2            14.7060387452      -23.1128661814       23.6504418573  TIP3      450             0.0000000000
     15149       550  TIP3      H1             15.5994820328      -23.2443997278       24.0310039593  TIP3      450             0.0000000000
     15150       550  TIP3      H2             14.8520477223      -22.6778136086       22.7917394970  TIP3      450             0.0000000000
     15151       551  TIP3      OH2            20.7508518684      -26.2170476978       30.7747429762  TIP3      451             0.0000000000
     15152       551  TIP3      H1             19.9239056045      -26.3866491883       31.2542930200  TIP3      451             0.0000000000
     15153       551  TIP3      H2             20.5661378819      -26.6873830853       29.9298530172  TIP3      451             0.0000000000
     15154       552  TIP3      OH2            23.6397403449      -10.2767425858       37.4060253614  TIP3      452             0.0000000000
     15155       552  TIP3      H1             24.0592707678      -10.1517626342       36.5372381487  TIP3      452             0.0000000000
     15156       552  TIP3      H2             24.3698922150       -9.9923174479       37.9839788623  TIP3      452             0.0000000000
     15157       553  TIP3      OH2            11.6526303591      -18.1271046076       36.6934096283  TIP3      453             0.0000000000
     15158       553  TIP3      H1             12.3948321204      -17.8213368582       37.2527193693  TIP3      453             0.0000000000
     15159       553  TIP3      H2             10.8964323444      -18.1177117566       37.3233372748  TIP3      453             0.0000000000
     15160       554  TIP3      OH2            17.4527705228      -22.4681414063       28.9450688828  TIP3      454             0.0000000000
     15161       554  TIP3      H1             18.3236437522      -22.8743454382       28.8196580180  TIP3      454             0.0000000000
     15162       554  TIP3      H2             17.1754661916      -22.8862464527       29.7762559284  TIP3      454             0.0000000000
     15163       555  TIP3      OH2            12.3050732821      -26.3627630228       26.0936045486  TIP3      455             0.0000000000
     15164       555  TIP3      H1             11.6975850178      -27.1226766423       26.2307051015  TIP3      455             0.0000000000
     15165       555  TIP3      H2             12.9963336274      -26.7863749106       25.5551126105  TIP3      455             0.0000000000
     15166       556  TIP3      OH2            16.5751604233      -24.2343841110       31.4951897735  TIP3      456             0.0000000000
     15167       556  TIP3      H1             15.7131242917      -23.8027037963       31.6844595324  TIP3      456             0.0000000000
     15168       556  TIP3      H2             17.1200576791      -23.8456960112       32.1944160719  TIP3      456             0.0000000000
     15169       557  TIP3      OH2            16.8953756073      -18.1067684820       24.0569827723  TIP3      457             0.0000000000
     15170       557  TIP3      H1             16.1234028022      -18.6760961215       23.8365275703  TIP3      457             0.0000000000
     15171       557  TIP3      H2             16.5462657329      -17.6628342063       24.8671537231  TIP3      457             0.0000000000
     15172       558  TIP3      OH2            24.3688149849      -18.4498702862       32.5266648602  TIP3      458             0.0000000000
     15173       558  TIP3      H1             24.7130667629      -17.8265413265       31.8444682470  TIP3      458             0.0000000000
     15174       558  TIP3      H2             23.4956339835      -18.6551454576       32.1512336620  TIP3      458             0.0000000000
     15175       559  TIP3      OH2            17.9961781493      -17.4248964369       34.8288263929  TIP3      459             0.0000000000
     15176       559  TIP3      H1             17.7398063304      -17.6497369676       35.7385214395  TIP3      459             0.0000000000
     15177       559  TIP3      H2             17.7190181351      -16.4824927321       34.7829975899  TIP3      459             0.0000000000
     15178       560  TIP3      OH2            21.5386032173      -23.6462513949       23.4429737785  TIP3      460             0.0000000000
     15179       560  TIP3      H1             22.1771104491      -23.4481846246       24.1612838919  TIP3      460             0.0000000000
     15180       560  TIP3      H2             21.6569062705      -22.8382537991       22.9040193092  TIP3      460             0.0000000000
     15181       561  TIP3      OH2            12.0440034720      -18.4413940333       29.3162175623  TIP3      461             0.0000000000
     15182       561  TIP3      H1             12.6359360123      -18.5937103677       28.5539415044  TIP3      461             0.0000000000
     15183       561  TIP3      H2             12.2300734189      -19.1947672217       29.8978478677  TIP3      461             0.0000000000
     15184       562  TIP3      OH2            19.0627342008      -16.8508716870       23.1338062143  TIP3      462             0.0000000000
     15185       562  TIP3      H1             18.6912161154      -16.1517231766       22.5740351151  TIP3      462             0.0000000000
     15186       562  TIP3      H2             18.2579568928      -17.3682276589       23.3766295006  TIP3      462             0.0000000000
     15187       563  TIP3      OH2             9.1053972222      -20.1380470314       34.7019206783  TIP3      463             0.0000000000
     15188       563  TIP3      H1              9.1164120374      -20.7365857049       35.4727613836  TIP3      463             0.0000000000
     15189       563  TIP3      H2              8.5221937983      -20.5902317017       34.0693453736  TIP3      463             0.0000000000
     15190       564  TIP3      OH2            15.6046232735      -20.5783062277       36.7102003714  TIP3      464             0.0000000000
     15191       564  TIP3      H1             15.5132872076      -21.1080310575       35.9007026724  TIP3      464             0.0000000000
     15192       564  TIP3      H2             16.5221203318      -20.8037943380       36.9685176245  TIP3      464             0.0000000000
     15193       565  TIP3      OH2            20.9286446869      -15.2401963666       35.1937164991  TIP3      465             0.0000000000
     15194       565  TIP3      H1             20.0565678682      -15.1467124044       34.7830163215  TIP3      465             0.0000000000
     15195       565  TIP3      H2             20.7181110791      -14.8543079610       36.0735645819  TIP3      465             0.0000000000
     15196       566  TIP3      OH2            25.1527408075      -22.8298047164       23.3204445798  TIP3      466             0.0000000000
     15197       566  TIP3      H1             25.2264396903      -22.8219078800       22.3403930419  TIP3      466             0.0000000000
     15198       566  TIP3      H2             25.6102549036      -21.9952929778       23.5079191284  TIP3      466             0.0000000000
     15199       567  TIP3      OH2            26.5399560881      -17.2605468012       35.8566564583  TIP3      467             0.0000000000
     15200       567  TIP3      H1             25.6291777593      -16.9670133599       35.6397441322  TIP3      467             0.0000000000
     15201       567  TIP3      H2             26.9094376386      -17.3317401463       34.9404040708  TIP3      467             0.0000000000
     15202       568  TIP3      OH2            24.5205382700      -14.6885519891       24.3725264823  TIP3      468             0.0000000000
     15203       568  TIP3      H1             23.7381579310      -14.9076993368       24.9104379931  TIP3      468             0.0000000000
     15204       568  TIP3      H2             24.6194731596      -15.5189470408       23.9053099080  TIP3      468             0.0000000000
     15205       569  TIP3      OH2            22.0949746413      -19.3788131128       30.7721524961  TIP3      469             0.0000000000
     15206       569  TIP3      H1             21.1823256094      -19.6299337643       30.5411575429  TIP3      469             0.0000000000
     15207       569  TIP3      H2             22.6094245976      -19.9945005614       30.2131626113  TIP3      469             0.0000000000
     15208       570  TIP3      OH2            14.5555450083      -15.2294483398       27.3286843350  TIP3      470             0.0000000000
     15209       570  TIP3      H1             14.8717639630      -14.3275954506       27.1013515291  TIP3      470             0.0000000000
     15210       570  TIP3      H2             13.8845871977      -15.3759475857       26.6414620785  TIP3      470             0.0000000000
     15211       571  TIP3      OH2            15.9849548206      -17.2486687621       26.4708895626  TIP3      471             0.0000000000
     15212       571  TIP3      H1             15.5839401182      -16.3743568970       26.6363289521  TIP3      471             0.0000000000
     15213       571  TIP3      H2             15.4957399023      -17.8295878408       27.0692682639  TIP3      471             0.0000000000
     15214       572  TIP3      OH2            16.2424672273      -13.0994536041       33.3442137339  TIP3      472             0.0000000000
     15215       572  TIP3      H1             16.8461860068      -12.4811166835       32.8823458885  TIP3      472             0.0000000000
     15216       572  TIP3      H2             16.8859242162      -13.5583457349       33.9182664781  TIP3      472             0.0000000000
     15217       573  TIP3      OH2            14.8750169796      -12.6978773407       26.3162995284  TIP3      473             0.0000000000
     15218       573  TIP3      H1             13.9323541490      -12.5741351023       26.1287646787  TIP3      473             0.0000000000
     15219       573  TIP3      H2             15.1396674638      -11.7606572748       26.4354756943  TIP3      473             0.0000000000
     15220       574  TIP3      OH2            19.3668397628      -17.2978510655       32.5257426503  TIP3      474             0.0000000000
     15221       574  TIP3      H1             19.0492935330      -17.4962157739       33.4438851035  TIP3      474             0.0000000000
     15222       574  TIP3      H2             19.6949805195      -18.1610997645       32.2319312618  TIP3      474             0.0000000000
     15223       575  TIP3      OH2            22.7201062284      -12.9000106958       34.8549066326  TIP3      475             0.0000000000
     15224       575  TIP3      H1             21.8810046364      -13.4058726275       34.8182016876  TIP3      475             0.0000000000
     15225       575  TIP3      H2             22.6285990345      -12.3339828850       34.0681105983  TIP3      475             0.0000000000
     15226       576  TIP3      OH2            10.7031249076      -25.8448397312       33.9962471850  TIP3      476             0.0000000000
     15227       576  TIP3      H1             10.0333241627      -25.4462361658       34.5774402843  TIP3      476             0.0000000000
     15228       576  TIP3      H2             10.8782048065      -26.6872810841       34.4598120681  TIP3      476             0.0000000000
     15229       577  TIP3      OH2            22.8811348248      -17.7960846096       24.0673992248  TIP3      477             0.0000000000
     15230       577  TIP3      H1             22.7384754526      -18.6943787754       24.3857734738  TIP3      477             0.0000000000
     15231       577  TIP3      H2             23.8228095073      -17.8091707260       23.8099371671  TIP3      477             0.0000000000
     15232       578  TIP3      OH2            10.2843903680      -13.6913082319       32.5035183405  TIP3      478             0.0000000000
     15233       578  TIP3      H1             11.0382925147      -14.2287911266       32.7986080517  TIP3      478             0.0000000000
     15234       578  TIP3      H2             10.0420161092      -13.1993587188       33.2967088075  TIP3      478             0.0000000000
     15235       579  TIP3      OH2            19.4515095765      -25.8535390424       33.3600266872  TIP3      479             0.0000000000
     15236       579  TIP3      H1             20.3566811422      -25.6383153601       33.6619740610  TIP3      479             0.0000000000
     15237       579  TIP3      H2             19.2343205728      -26.6071172702       33.9541603790  TIP3      479             0.0000000000
     15238       580  TIP3      OH2            20.2770658420      -26.2585393956       24.8246364286  TIP3      480             0.0000000000
     15239       580  TIP3      H1             20.8227410293      -25.5936851053       24.3740126275  TIP3      480             0.0000000000
     15240       580  TIP3      H2             20.5112825074      -26.0698735627       25.7688511073  TIP3      480             0.0000000000
     15241       581  TIP3      OH2            17.1305541615      -24.0389098790       24.9906194175  TIP3      481             0.0000000000
     15242       581  TIP3      H1             17.9485946999      -23.4879166152       25.0648976752  TIP3      481             0.0000000000
     15243       581  TIP3      H2             17.0852542072      -24.4423327277       25.8757061614  TIP3      481             0.0000000000
     15244       582  TIP3      OH2            18.2598360860      -23.0346046414       34.4551258434  TIP3      482             0.0000000000
     15245       582  TIP3      H1             18.1228147032      -22.8805738442       35.4133913795  TIP3      482             0.0000000000
     15246       582  TIP3      H2             18.5055761824      -23.9775039805       34.3932280443  TIP3      482             0.0000000000
     15247       583  TIP3      OH2            18.1568920283      -27.3922841311       25.9062455682  TIP3      483             0.0000000000
     15248       583  TIP3      H1             17.8278987949      -26.7867797204       26.6118013658  TIP3      483             0.0000000000
     15249       583  TIP3      H2             18.8940256440      -26.8611923378       25.5195174615  TIP3      483             0.0000000000
     15250       584  TIP3      OH2            14.6139092441      -12.5741039422       23.5117950009  TIP3      484             0.0000000000
     15251       584  TIP3      H1             15.2997384841      -12.9455166580       22.8991283015  TIP3      484             0.0000000000
     15252       584  TIP3      H2             15.1170801013      -12.5750714726       24.3332849928  TIP3      484             0.0000000000
     15253       585  TIP3      OH2            14.2290246650      -25.5118133190       22.4832877088  TIP3      485             0.0000000000
     15254       585  TIP3      H1             14.3308603054      -24.6279847466       22.8907614165  TIP3      485             0.0000000000
     15255       585  TIP3      H2             14.9905230204      -25.9841731980       22.8927588193  TIP3      485             0.0000000000
     15256       586  TIP3      OH2            23.8433487460      -25.2267425455       35.2281900485  TIP3      486             0.0000000000
     15257       586  TIP3      H1             22.9695557575      -24.9422720916       34.8927134875  TIP3      486             0.0000000000
     15258       586  TIP3      H2             24.0603744155      -25.9100243743       34.5737110645  TIP3      486             0.0000000000
     15259       587  TIP3      OH2            22.8297912977      -21.8356622637       29.0343643475  TIP3      487             0.0000000000
     15260       587  TIP3      H1             22.0099106240      -22.3614120171       28.9873804979  TIP3      487             0.0000000000
     15261       587  TIP3      H2             23.3558331374      -22.3621535007       29.6719089838  TIP3      487             0.0000000000
     15262       588  TIP3      OH2            12.3404520318      -15.8783592357       21.9028486883  TIP3      488             0.0000000000
     15263       588  TIP3      H1             12.7669292111      -15.1986069750       22.4437507898  TIP3      488             0.0000000000
     15264       588  TIP3      H2             12.7610645404      -15.7309781597       21.0453309033  TIP3      488             0.0000000000
     15265       589  TIP3      OH2            23.6309301757      -12.3609887203       30.7331199768  TIP3      489             0.0000000000
     15266       589  TIP3      H1             23.4873611484      -11.7050212875       30.0182349329  TIP3      489             0.0000000000
     15267       589  TIP3      H2             24.5939759919      -12.2809049982       30.8667334054  TIP3      489             0.0000000000
     15268       590  TIP3      OH2            11.1869067105      -28.0460663770       29.5796749658  TIP3      490             0.0000000000
     15269       590  TIP3      H1             10.9597914164      -28.2320980152       28.6494267209  TIP3      490             0.0000000000
     15270       590  TIP3      H2             11.2389437589      -28.9636714148       29.9136868269  TIP3      490             0.0000000000
     15271       591  TIP3      OH2             9.5092045441      -14.7081991435       25.3626887864  TIP3      491             0.0000000000
     15272       591  TIP3      H1              9.0121790310      -14.1667062062       25.9916762019  TIP3      491             0.0000000000
     15273       591  TIP3      H2             10.3230792488      -14.1949126042       25.2706673277  TIP3      491             0.0000000000
     15274       592  TIP3      OH2             9.3699598658      -11.4238408419       37.0052891568  TIP3      492             0.0000000000
     15275       592  TIP3      H1             10.2288765377      -11.6408805863       37.4105128043  TIP3      492             0.0000000000
     15276       592  TIP3      H2              8.9418999749      -12.2994622509       37.0335024445  TIP3      492             0.0000000000
     15277       593  TIP3      OH2            13.9069339645      -12.9099104698       38.6896947802  TIP3      493             0.0000000000
     15278       593  TIP3      H1             14.7728686129      -13.1380550409       39.0615843933  TIP3      493             0.0000000000
     15279       593  TIP3      H2             13.9677468717      -13.2751082714       37.7861664050  TIP3      493             0.0000000000
     15280       594  TIP3      OH2            20.4304418705      -14.0632316007       37.5294900470  TIP3      494             0.0000000000
     15281       594  TIP3      H1             20.1090853114      -14.9356647547       37.8644481055  TIP3      494             0.0000000000
     15282       594  TIP3      H2             21.3392797219      -14.0668639844       37.8944812113  TIP3      494             0.0000000000
     15283       595  TIP3      OH2             9.1939582932      -18.1083691121       37.8893268482  TIP3      495             0.0000000000
     15284       595  TIP3      H1              8.6567814308      -18.9064366594       38.0133708459  TIP3      495             0.0000000000
     15285       595  TIP3      H2              8.7271721261      -17.6654464557       37.1397665333  TIP3      495             0.0000000000
     15286       596  TIP3      OH2            15.8408292398      -17.9588003847       36.8451333556  TIP3      496             0.0000000000
     15287       596  TIP3      H1             15.4877683664      -17.3247133093       36.1763352974  TIP3      496             0.0000000000
     15288       596  TIP3      H2             15.7070515763      -18.8515026713       36.4453526587  TIP3      496             0.0000000000
     15289       597  TIP3      OH2            21.5814226694      -18.0269641017       35.0924450557  TIP3      497             0.0000000000
     15290       597  TIP3      H1             22.4150506839      -17.5158511459       34.9893458949  TIP3      497             0.0000000000
     15291       597  TIP3      H2             20.9926115309      -17.2712921493       35.2956483747  TIP3      497             0.0000000000
     15292       598  TIP3      OH2            10.3367383960      -21.1727143521       37.4779288807  TIP3      498             0.0000000000
     15293       598  TIP3      H1             10.3476771304      -21.9938323471       37.9962793838  TIP3      498             0.0000000000
     15294       598  TIP3      H2             10.8164957829      -20.5748790719       38.0790554832  TIP3      498             0.0000000000
     15295       599  TIP3      OH2            14.8776824304      -19.6465846756       23.3087590906  TIP3      499             0.0000000000
     15296       599  TIP3      H1             14.0150970079      -19.8862342672       23.7060686229  TIP3      499             0.0000000000
     15297       599  TIP3      H2             14.9060645939      -20.2262845818       22.5133394763  TIP3      499             0.0000000000
     15298       600  TIP3      OH2            13.8988960966      -21.8029650888       34.5853710519  TIP3      500             0.0000000000
     15299       600  TIP3      H1             13.2622929648      -21.0618265376       34.5585966206  TIP3      500             0.0000000000
     15300       600  TIP3      H2             14.6436996335      -21.4329434167       34.0806969707  TIP3      500             0.0000000000
     15301       601  TIP3      OH2            15.3336879160      -21.0455243730       21.1081426051  TIP3      501             0.0000000000
     15302       601  TIP3      H1             14.9908706118      -21.3274078110       20.2440238779  TIP3      501             0.0000000000
     15303       601  TIP3      H2             16.1830103974      -20.6462338363       20.8666443310  TIP3      501             0.0000000000
     15304       602  TIP3      OH2            19.5976900578      -18.9992972167       38.3511015992  TIP3      502             0.0000000000
     15305       602  TIP3      H1             20.1505292347      -19.1338043875       37.5644526579  TIP3      502             0.0000000000
     15306       602  TIP3      H2             19.0767954598      -19.8113432431       38.3722092655  TIP3      502             0.0000000000
     15307       603  TIP3      OH2            14.5325286443      -24.1959627669       35.6455623966  TIP3      503             0.0000000000
     15308       603  TIP3      H1             14.9453213519      -24.6480397867       34.8807107429  TIP3      503             0.0000000000
     15309       603  TIP3      H2             14.1915261741      -23.3714068287       35.2262390547  TIP3      503             0.0000000000
     15310       604  TIP3      OH2            15.4080579049      -25.8035535361       33.4948430981  TIP3      504             0.0000000000
     15311       604  TIP3      H1             15.8956863865      -25.5602021110       32.6835096341  TIP3      504             0.0000000000
     15312       604  TIP3      H2             14.4701637513      -25.6925569597       33.2252555962  TIP3      504             0.0000000000
     15313       605  TIP3      OH2            16.2575743636      -20.4474276504       33.7655148123  TIP3      505             0.0000000000
     15314       605  TIP3      H1             17.1908604257      -20.3219091482       33.5601685834  TIP3      505             0.0000000000
     15315       605  TIP3      H2             15.8194936127      -19.6574986342       33.3776156779  TIP3      505             0.0000000000
     15316       606  TIP3      OH2            20.3194072492      -22.6506592075       38.7102923602  TIP3      506             0.0000000000
     15317       606  TIP3      H1             20.4595854581      -23.6169973724       38.7754515565  TIP3      506             0.0000000000
     15318       606  TIP3      H2             21.2345362730      -22.3435469791       38.6108166609  TIP3      506             0.0000000000
     15319       607  TIP3      OH2            22.5800642567      -19.6420615434       37.0227250724  TIP3      507             0.0000000000
     15320       607  TIP3      H1             22.1622891447      -19.0917326837       36.3338974430  TIP3      507             0.0000000000
     15321       607  TIP3      H2             23.4966508534      -19.7344116759       36.6751617332  TIP3      507             0.0000000000
     15322       608  TIP3      OH2            13.0307739370      -23.3914285186       37.8851607808  TIP3      508             0.0000000000
     15323       608  TIP3      H1             12.1680557858      -23.7664421181       37.5940904678  TIP3      508             0.0000000000
     15324       608  TIP3      H2             13.6018080921      -23.7534723506       37.1768080413  TIP3      508             0.0000000000
     15325       609  TIP3      OH2            15.6481794836      -28.5665441540       33.5516907307  TIP3      509             0.0000000000
     15326       609  TIP3      H1             15.8745246693      -27.6149305131       33.5998023077  TIP3      509             0.0000000000
     15327       609  TIP3      H2             14.6948612276      -28.4967459758       33.3581974109  TIP3      509             0.0000000000
     15328       610  TIP3      OH2            17.0279075939      -24.1475330509       37.3572286003  TIP3      510             0.0000000000
     15329       610  TIP3      H1             16.6045874020      -24.5204713848       38.1454490164  TIP3      510             0.0000000000
     15330       610  TIP3      H2             16.4319258084      -24.4880185228       36.6721356830  TIP3      510             0.0000000000
     15331       611  TIP3      OH2            19.8592057505      -24.9714807397       36.5740708451  TIP3      511             0.0000000000
     15332       611  TIP3      H1             19.0015539792      -25.0735591791       37.0199061821  TIP3      511             0.0000000000
     15333       611  TIP3      H2             20.4224245525      -25.5137209471       37.1719813235  TIP3      511             0.0000000000
     15334       612  TIP3      OH2            21.3036789410      -26.2982003484       38.4958521716  TIP3      512             0.0000000000
     15335       612  TIP3      H1             21.3284719353      -27.2703581045       38.3994711731  TIP3      512             0.0000000000
     15336       612  TIP3      H2             20.9758845586      -26.1680367439       39.4073942856  TIP3      512             0.0000000000
     15337       613  TIP3      OH2            10.9575022910      -25.1325424419       37.4612008497  TIP3      513             0.0000000000
     15338       613  TIP3      H1             10.9881811821      -25.9241731818       36.8959347511  TIP3      513             0.0000000000
     15339       613  TIP3      H2             10.7379280150      -25.5190540939       38.3406503025  TIP3      513             0.0000000000
     15340       614  TIP3      OH2            15.4224009513      -28.7832539628       36.2860130074  TIP3      514             0.0000000000
     15341       614  TIP3      H1             15.8060501982      -29.6603112355       36.4634847390  TIP3      514             0.0000000000
     15342       614  TIP3      H2             15.5699098888      -28.7159050296       35.3218153156  TIP3      514             0.0000000000
     15343       615  TIP3      OH2            16.2256887684      -27.1020437676       38.2731525906  TIP3      515             0.0000000000
     15344       615  TIP3      H1             15.9895089728      -27.4603483412       37.3946631265  TIP3      515             0.0000000000
     15345       615  TIP3      H2             15.4644801762      -26.5274366275       38.4971032510  TIP3      515             0.0000000000
     15346       616  TIP3      OH2            16.3443145139       -9.8027266035       21.1261543786  TIP3      516             0.0000000000
     15347       616  TIP3      H1             16.8945195764      -10.5778911086       21.2517632710  TIP3      516             0.0000000000
     15348       616  TIP3      H2             15.5536747460      -10.1656417685       20.7158087253  TIP3      516             0.0000000000
     15349       617  TIP3      OH2             9.7194110001      -16.1899397823       21.1386986060  TIP3      517             0.0000000000
     15350       617  TIP3      H1             10.5540967833      -16.1841211893       21.6494526877  TIP3      517             0.0000000000
     15351       617  TIP3      H2              9.9004325153      -15.4846103235       20.5025889533  TIP3      517             0.0000000000
     15352       618  TIP3      OH2             8.0482119756      -11.0740686983       26.2874666573  TIP3      518             0.0000000000
     15353       618  TIP3      H1              7.3802279059      -11.4983204908       25.7064428583  TIP3      518             0.0000000000
     15354       618  TIP3      H2              8.3962790981      -11.8332978525       26.7879944519  TIP3      518             0.0000000000
     15355       619  TIP3      OH2             9.1710980192      -12.7424398706       28.1862421293  TIP3      519             0.0000000000
     15356       619  TIP3      H1              8.4968179079      -13.3381586049       28.5570394705  TIP3      519             0.0000000000
     15357       619  TIP3      H2              9.3828363680      -12.2184003056       28.9941099247  TIP3      519             0.0000000000
     15358       620  TIP3      OH2            26.3429264080      -11.3637212725       31.2250589497  TIP3      520             0.0000000000
     15359       620  TIP3      H1             26.5692968277      -10.8597195746       32.0205743211  TIP3      520             0.0000000000
     15360       620  TIP3      H2             27.2365289170      -11.4314240830       30.8398500607  TIP3      520             0.0000000000
     15361       621  TIP3      OH2            26.0672317795      -12.2277907895       34.0199188059  TIP3      521             0.0000000000
     15362       621  TIP3      H1             25.7128667659      -12.9063596950       33.4133923035  TIP3      521             0.0000000000
     15363       621  TIP3      H2             26.3359420037      -12.7971967143       34.7808200222  TIP3      521             0.0000000000
     15364       622  TIP3      OH2            24.9559572131      -16.3286664220       38.7344495408  TIP3      522             0.0000000000
     15365       622  TIP3      H1             24.0632568416      -16.2756658255       39.1384413447  TIP3      522             0.0000000000
     15366       622  TIP3      H2             25.3454533912      -15.4841754592       39.0514041032  TIP3      522             0.0000000000
     15367       623  TIP3      OH2            25.7838437233      -18.2214672601       24.2497193838  TIP3      523             0.0000000000
     15368       623  TIP3      H1             26.5406272187      -17.6029651158       24.4016632104  TIP3      523             0.0000000000
     15369       623  TIP3      H2             26.0507728446      -18.9669144174       24.8334715892  TIP3      523             0.0000000000
     15370       624  TIP3      OH2            26.2655897530      -20.1629761042       26.1621506448  TIP3      524             0.0000000000
     15371       624  TIP3      H1             25.5649626445      -20.7943641142       26.4554864962  TIP3      524             0.0000000000
     15372       624  TIP3      H2             26.8522135624      -20.1796059208       26.9549309394  TIP3      524             0.0000000000
     15373       625  TIP3      OH2            25.8939214145      -17.2196389469       30.6945244627  TIP3      525             0.0000000000
     15374       625  TIP3      H1             26.5487850679      -17.9365965694       30.5497397583  TIP3      525             0.0000000000
     15375       625  TIP3      H2             26.3982758581      -16.4323507135       30.4041699262  TIP3      525             0.0000000000
     15376       626  TIP3      OH2            24.6355930495      -14.5123103829       33.2728010680  TIP3      526             0.0000000000
     15377       626  TIP3      H1             23.9606357972      -14.0143750788       33.7749379698  TIP3      526             0.0000000000
     15378       626  TIP3      H2             24.1690216940      -14.7896516500       32.4478040146  TIP3      526             0.0000000000
     15379       627  TIP3      OH2            26.3290856495      -20.2391401293       22.2252672384  TIP3      527             0.0000000000
     15380       627  TIP3      H1             25.4809995345      -20.2663754896       21.7531918949  TIP3      527             0.0000000000
     15381       627  TIP3      H2             26.2548579353      -19.3981379710       22.7147317977  TIP3      527             0.0000000000
     15382       628  TIP3      OH2            25.2625392208      -22.9990986355       20.6557892152  TIP3      528             0.0000000000
     15383       628  TIP3      H1             24.5387882329      -22.6159274472       20.1362340808  TIP3      528             0.0000000000
     15384       628  TIP3      H2             25.0740535399      -23.9611479904       20.6685723956  TIP3      528             0.0000000000
     15385       629  TIP3      OH2            24.6791981233      -22.0631876040       27.0482328681  TIP3      529             0.0000000000
     15386       629  TIP3      H1             24.0804343574      -22.5932030726       26.4741830608  TIP3      529             0.0000000000
     15387       629  TIP3      H2             24.1023554806      -21.8199275570       27.8070044736  TIP3      529             0.0000000000
     15388       630  TIP3      OH2             9.0198985114      -19.1516984145       30.7212013400  TIP3      530             0.0000000000
     15389       630  TIP3      H1              8.8634556148      -19.5581097299       29.8397215047  TIP3      530             0.0000000000
     15390       630  TIP3      H2              9.8986374186      -19.5456116998       30.9345388088  TIP3      530             0.0000000000
     15391       631  TIP3      OH2            25.1975881217      -19.6958690987       36.1979840866  TIP3      531             0.0000000000
     15392       631  TIP3      H1             25.8890373828      -20.2909779659       36.5566429648  TIP3      531             0.0000000000
     15393       631  TIP3      H2             25.6804657440      -18.8374373213       36.1295568266  TIP3      531             0.0000000000
     15394       632  TIP3      OH2            25.9770184944      -21.9048616199       37.6157636669  TIP3      532             0.0000000000
     15395       632  TIP3      H1             25.1540391775      -21.8416537331       37.0893725771  TIP3      532             0.0000000000
     15396       632  TIP3      H2             26.3929767036      -22.6994704638       37.2153989850  TIP3      532             0.0000000000
     15397       633  TIP3      OH2            24.2320578615      -25.6514809983       20.6509111151  TIP3      533             0.0000000000
     15398       633  TIP3      H1             23.5915991977      -26.2837453200       21.0181481746  TIP3      533             0.0000000000
     15399       633  TIP3      H2             23.7491932944      -25.3666531573       19.8668165829  TIP3      533             0.0000000000
     15400       634  TIP3      OH2            23.4720675497      -23.6961591345       25.2628320938  TIP3      534             0.0000000000
     15401       634  TIP3      H1             23.8660333297      -24.5702729953       25.4899224065  TIP3      534             0.0000000000
     15402       634  TIP3      H2             24.0666847996      -23.4345005637       24.5165101819  TIP3      534             0.0000000000
     15403       635  TIP3      OH2            24.3057789439      -23.6429600446       30.6389083484  TIP3      535             0.0000000000
     15404       635  TIP3      H1             25.2446401358      -23.6144814581       30.3614469776  TIP3      535             0.0000000000
     15405       635  TIP3      H2             24.4257257924      -23.3060981888       31.5586246188  TIP3      535             0.0000000000
     15406       636  TIP3      OH2            24.4826887604      -22.5260699379       33.1094751291  TIP3      536             0.0000000000
     15407       636  TIP3      H1             23.5351529742      -22.3052602848       33.2078524254  TIP3      536             0.0000000000
     15408       636  TIP3      H2             24.9108976213      -21.6439737068       33.0594745939  TIP3      536             0.0000000000
     15409       637  TIP3      OH2             8.7055285501      -24.0479106839       36.6482133290  TIP3      537             0.0000000000
     15410       637  TIP3      H1              9.5484217903      -24.1643596302       37.1424443226  TIP3      537             0.0000000000
     15411       637  TIP3      H2              8.3481435339      -24.9582622950       36.7108664240  TIP3      537             0.0000000000
     15412       638  TIP3      OH2            26.6667107664      -28.9699287914       37.9415190655  TIP3      538             0.0000000000
     15413       638  TIP3      H1             27.5984720944      -28.8922217273       38.1940656056  TIP3      538             0.0000000000
     15414       638  TIP3      H2             26.5178795956      -28.0439694113       37.6346783722  TIP3      538             0.0000000000
     15415       639  TIP3      OH2            24.3010941633      -26.2397849517       25.6148465671  TIP3      539             0.0000000000
     15416       639  TIP3      H1             24.5775250075      -26.8365456475       26.3456687355  TIP3      539             0.0000000000
     15417       639  TIP3      H2             23.6624422823      -26.8077013368       25.1544579621  TIP3      539             0.0000000000
     15418       640  TIP3      OH2             9.8036210806      -25.7891401021       29.6628550908  TIP3      540             0.0000000000
     15419       640  TIP3      H1             10.1818798215      -26.6833595031       29.8317515963  TIP3      540             0.0000000000
     15420       640  TIP3      H2             10.5928426193      -25.2202881592       29.7729022659  TIP3      540             0.0000000000
     15421       641  TIP3      OH2             8.2904285527      -22.9286635995       30.7915946925  TIP3      541             0.0000000000
     15422       641  TIP3      H1              8.8310216108      -23.2307222099       30.0484709337  TIP3      541             0.0000000000
     15423       641  TIP3      H2              8.8125921636      -22.1734279018       31.0838748613  TIP3      541             0.0000000000
     15424       642  TIP3      OH2            26.2517889595      -26.4487117011       37.0579681266  TIP3      542             0.0000000000
     15425       642  TIP3      H1             25.3917553581      -26.3981951266       37.5315951036  TIP3      542             0.0000000000
     15426       642  TIP3      H2             25.9203490155      -26.5984220202       36.1608221777  TIP3      542             0.0000000000
     15427       643  TIP3      OH2             7.8863677748      -26.5317452024       24.9685516801  TIP3      543             0.0000000000
     15428       643  TIP3      H1              7.0790401074      -25.9868432856       25.0166346854  TIP3      543             0.0000000000
     15429       643  TIP3      H2              8.4301905715      -26.0554848696       24.3047908301  TIP3      543             0.0000000000
     15430       644  TIP3      OH2            23.2959191888      -11.8339619967       26.8236433305  TIP3      544             0.0000000000
     15431       644  TIP3      H1             24.2256123281      -11.5721932667       26.7988761075  TIP3      544             0.0000000000
     15432       644  TIP3      H2             22.8834663144      -11.0050292653       27.1211737877  TIP3      544             0.0000000000
     15433       645  TIP3      OH2             8.5490552899      -28.1942920956       32.6521944742  TIP3      545             0.0000000000
     15434       645  TIP3      H1              8.3393831619      -28.0613383633       33.5816887637  TIP3      545             0.0000000000
     15435       645  TIP3      H2              8.0816410394      -27.4403204365       32.2485222974  TIP3      545             0.0000000000
     15436       646  TIP3      OH2            10.9138153156      -14.7028748307       37.6111085798  TIP3      546             0.0000000000
     15437       646  TIP3      H1             10.0246236512      -14.6138965482       37.2243150869  TIP3      546             0.0000000000
     15438       646  TIP3      H2             10.7412441076      -14.9229717516       38.5424845107  TIP3      546             0.0000000000
     15439       647  TIP3      OH2            13.4682874836      -13.2283565679       33.8565843087  TIP3      547             0.0000000000
     15440       647  TIP3      H1             13.4338040268      -12.3415605975       33.4370137681  TIP3      547             0.0000000000
     15441       647  TIP3      H2             14.4243813417      -13.4153350235       33.7371221978  TIP3      547             0.0000000000
     15442       648  TIP3      OH2            17.8537046017      -12.3226705081       36.3735625330  TIP3      548             0.0000000000
     15443       648  TIP3      H1             18.0148173159      -12.5021768521       37.3226934898  TIP3      548             0.0000000000
     15444       648  TIP3      H2             18.6387305398      -11.7767060671       36.1606578435  TIP3      548             0.0000000000
     15445       649  TIP3      OH2            19.9037032883      -10.5425428052       35.6990219598  TIP3      549             0.0000000000
     15446       649  TIP3      H1             20.7661664852      -10.7679387765       35.3249062334  TIP3      549             0.0000000000
     15447       649  TIP3      H2             20.1583266396      -10.1503235272       36.5599771644  TIP3      549             0.0000000000
     15448       650  TIP3      OH2            24.5565558462      -28.3735197198       34.8829541416  TIP3      550             0.0000000000
     15449       650  TIP3      H1             23.5955978822      -28.2526793132       34.8290172317  TIP3      550             0.0000000000
     15450       650  TIP3      H2             24.6605005911      -29.3369432034       35.0040362621  TIP3      550             0.0000000000
     15451       651  TIP3      OH2            11.0214339961      -10.4194946064       33.4128366358  TIP3      551             0.0000000000
     15452       651  TIP3      H1             10.1326550146      -10.0404379412       33.2250905338  TIP3      551             0.0000000000
     15453       651  TIP3      H2             10.9477078552      -10.6323817702       34.3525867839  TIP3      551             0.0000000000
     15454       652  TIP3      OH2            13.4520373998      -10.8704715354       32.5503619703  TIP3      552             0.0000000000
     15455       652  TIP3      H1             12.5234594024      -10.6724439159       32.8473241797  TIP3      552             0.0000000000
     15456       652  TIP3      H2             13.5475482680      -10.1934051452       31.8523994754  TIP3      552             0.0000000000
     15457       653  TIP3      OH2            17.9793149390      -11.3358464853       31.9821224191  TIP3      553             0.0000000000
     15458       653  TIP3      H1             17.6102062417      -10.8786178529       31.2087150139  TIP3      553             0.0000000000
     15459       653  TIP3      H2             18.2438344014      -10.5739775014       32.5473847962  TIP3      553             0.0000000000
     15460       654  TIP3      OH2            20.1460718253      -12.5452919086       33.1160660433  TIP3      554             0.0000000000
     15461       654  TIP3      H1             19.4043977130      -12.2799297952       32.5285927415  TIP3      554             0.0000000000
     15462       654  TIP3      H2             20.7838951488      -11.8252805680       32.9406670900  TIP3      554             0.0000000000
     15463       655  TIP3      OH2            22.6767057035      -10.8573223205       32.8079479680  TIP3      555             0.0000000000
     15464       655  TIP3      H1             22.7024556236      -10.0473528963       32.2666543349  TIP3      555             0.0000000000
     15465       655  TIP3      H2             23.0420825049      -11.5061231418       32.1589863180  TIP3      555             0.0000000000
     15466       656  TIP3      OH2            10.6345842223      -11.9060085867       30.4858224469  TIP3      556             0.0000000000
     15467       656  TIP3      H1             10.3893160545      -12.5897426968       31.1508153907  TIP3      556             0.0000000000
     15468       656  TIP3      H2             11.4988622198      -12.2628677697       30.1887530671  TIP3      556             0.0000000000
     15469       657  TIP3      OH2            12.9298815235      -12.9099621275       29.2706730201  TIP3      557             0.0000000000
     15470       657  TIP3      H1             12.7230678749      -13.8516779995       29.4557209700  TIP3      557             0.0000000000
     15471       657  TIP3      H2             13.7611124358      -12.8223066176       29.7918096142  TIP3      557             0.0000000000
     15472       658  TIP3      OH2            15.1234613598      -13.1643771660       30.8348409810  TIP3      558             0.0000000000
     15473       658  TIP3      H1             15.4474427147      -14.0759558773       30.8134345484  TIP3      558             0.0000000000
     15474       658  TIP3      H2             15.2043127831      -12.9632449994       31.7893008367  TIP3      558             0.0000000000
     15475       659  TIP3      OH2            19.1288456580      -27.4032568411       29.0456887764  TIP3      559             0.0000000000
     15476       659  TIP3      H1             18.2045719896      -27.2202869554       28.8451431968  TIP3      559             0.0000000000
     15477       659  TIP3      H2             19.1602941826      -28.3909698117       29.0870063604  TIP3      559             0.0000000000
     15478       660  TIP3      OH2            23.7486568138      -27.9408833652       29.4941746942  TIP3      560             0.0000000000
     15479       660  TIP3      H1             24.2394942619      -28.1247603307       28.6657570282  TIP3      560             0.0000000000
     15480       660  TIP3      H2             22.8936422291      -28.3551105274       29.2602164129  TIP3      560             0.0000000000
     15481       661  TIP3      OH2            25.4488952471      -27.9800092585       27.3333301469  TIP3      561             0.0000000000
     15482       661  TIP3      H1             25.8871023798      -28.4972352499       26.6450241261  TIP3      561             0.0000000000
     15483       661  TIP3      H2             26.0939177444      -27.2492591662       27.5483036083  TIP3      561             0.0000000000
     15484       662  TIP3      OH2            10.7315820903      -28.4829487056       26.3408738869  TIP3      562             0.0000000000
     15485       662  TIP3      H1             10.3988900938      -28.4836699936       25.4135389243  TIP3      562             0.0000000000
     15486       662  TIP3      H2             10.9191218413      -29.4313082770       26.4809137930  TIP3      562             0.0000000000
     15487       663  TIP3      OH2             9.7965487676      -28.4968020497       23.8189192428  TIP3      563             0.0000000000
     15488       663  TIP3      H1              9.7000340363      -27.5488966312       23.6270332378  TIP3      563             0.0000000000
     15489       663  TIP3      H2              9.0061590360      -28.8743693094       23.4170761398  TIP3      563             0.0000000000
     15490       664  TIP3      OH2            15.3767690146      -27.8495170449       26.5964551347  TIP3      564             0.0000000000
     15491       664  TIP3      H1             16.2868006128      -27.9069683911       26.2787092179  TIP3      564             0.0000000000
     15492       664  TIP3      H2             15.4767954406      -28.0933731691       27.5346634064  TIP3      564             0.0000000000
     15493       665  TIP3      OH2            21.6844357472      -28.7129364663       28.1413047659  TIP3      565             0.0000000000
     15494       665  TIP3      H1             21.1573777742      -28.2130059154       27.5116712827  TIP3      565             0.0000000000
     15495       665  TIP3      H2             21.2156500947      -29.5711650578       28.1768530234  TIP3      565             0.0000000000
     15496       666  TIP3      OH2            22.5406808441      -28.1518694088       24.2570647339  TIP3      566             0.0000000000
     15497       666  TIP3      H1             21.6788734621      -27.7427942685       24.0911231975  TIP3      566             0.0000000000
     15498       666  TIP3      H2             22.2474373111      -29.0654342196       24.3983541276  TIP3      566             0.0000000000
     15499       667  TIP3      OH2            11.6406474532      -26.2010980745       22.0045489700  TIP3      567             0.0000000000
     15500       667  TIP3      H1             12.0193327465      -26.4913886429       21.1724913022  TIP3      567             0.0000000000
     15501       667  TIP3      H2             12.4698523933      -26.0519854663       22.5073564196  TIP3      567             0.0000000000
     15502       668  TIP3      OH2            16.3567575680      -26.5154691246       23.7982421912  TIP3      568             0.0000000000
     15503       668  TIP3      H1             16.8806281229      -27.1444986721       24.3270693719  TIP3      568             0.0000000000
     15504       668  TIP3      H2             16.5850915489      -25.6696457700       24.2255801381  TIP3      568             0.0000000000
     15505       669  TIP3      OH2            25.3622143739      -12.2501438279       24.7482372409  TIP3      569             0.0000000000
     15506       669  TIP3      H1             24.9839660121      -13.1547893684       24.5795093988  TIP3      569             0.0000000000
     15507       669  TIP3      H2             24.5958356845      -11.6747692630       24.5657395723  TIP3      569             0.0000000000
     15508       670  TIP3      OH2            10.9479568427      -27.7878196514       36.1025395178  TIP3      570             0.0000000000
     15509       670  TIP3      H1             10.6122822692      -28.7078107442       36.0096959315  TIP3      570             0.0000000000
     15510       670  TIP3      H2             11.5739971886      -27.9168541218       36.8501024084  TIP3      570             0.0000000000
     15511       671  TIP3      OH2            12.8916433534      -28.1235227785       37.9965772610  TIP3      571             0.0000000000
     15512       671  TIP3      H1             13.8050943858      -28.1341364298       37.6448158661  TIP3      571             0.0000000000
     15513       671  TIP3      H2             12.7828784145      -29.0841067606       38.2066666212  TIP3      571             0.0000000000
     15514       672  TIP3      OH2            21.1423942469      -29.0698541141       38.1327486374  TIP3      572             0.0000000000
     15515       672  TIP3      H1             20.5143799837      -29.7539108668       38.4080551578  TIP3      572             0.0000000000
     15516       672  TIP3      H2             21.9358977610      -29.6240076329       38.0889558016  TIP3      572             0.0000000000
     15517       673  TIP3      OH2            24.5364971046      -13.0988308174       36.7803800916  TIP3      573             0.0000000000
     15518       673  TIP3      H1             23.9219803957      -13.1002559996       36.0029552314  TIP3      573             0.0000000000
     15519       673  TIP3      H2             24.4165681965      -12.1961364592       37.1172234534  TIP3      573             0.0000000000
     15520       674  TIP3      OH2            27.4982539201      -22.6734453847       25.3838193240  TIP3      574             0.0000000000
     15521       674  TIP3      H1             27.3710504089      -21.7122849053       25.4563674071  TIP3      574             0.0000000000
     15522       674  TIP3      H2             26.8560497614      -22.9556200253       26.0507439441  TIP3      574             0.0000000000
     15523       675  TIP3      OH2            27.8864938897      -20.4097819790       28.2816849345  TIP3      575             0.0000000000
     15524       675  TIP3      H1             28.2043707614      -21.3347170097       28.2072960000  TIP3      575             0.0000000000
     15525       675  TIP3      H2             28.7179124407      -19.9283395606       28.0593594369  TIP3      575             0.0000000000
     15526       676  TIP3      OH2            28.6606007749      -22.9951949932       28.1891926202  TIP3      576             0.0000000000
     15527       676  TIP3      H1             29.3590144597      -22.9150977598       28.8710766337  TIP3      576             0.0000000000
     15528       676  TIP3      H2             28.8465261604      -23.8782780177       27.8190542530  TIP3      576             0.0000000000
     15529       677  TIP3      OH2            28.0407959571      -16.7949815186       24.3354568548  TIP3      577             0.0000000000
     15530       677  TIP3      H1             28.0988893086      -16.3857606725       23.4495891184  TIP3      577             0.0000000000
     15531       677  TIP3      H2             28.5364357239      -16.1863703322       24.9168253976  TIP3      577             0.0000000000
     15532       678  TIP3      OH2            27.8111634108      -17.9331375009       33.6213089952  TIP3      578             0.0000000000
     15533       678  TIP3      H1             27.5955884743      -17.9496697324       32.6723456799  TIP3      578             0.0000000000
     15534       678  TIP3      H2             28.0870748612      -18.8549157560       33.7640534982  TIP3      578             0.0000000000
     15535       679  TIP3      OH2            27.3464600011      -14.9546637211       29.9912715989  TIP3      579             0.0000000000
     15536       679  TIP3      H1             28.2230091588      -15.1883584353       29.6387596478  TIP3      579             0.0000000000
     15537       679  TIP3      H2             27.5957939429      -14.4548368787       30.7912405322  TIP3      579             0.0000000000
     15538       680  TIP3      OH2            27.1099659664      -25.9028999468       27.6942939234  TIP3      580             0.0000000000
     15539       680  TIP3      H1             27.4716464046      -25.8240516454       28.6027648931  TIP3      580             0.0000000000
     15540       680  TIP3      H2             27.9430096707      -25.8087227239       27.2106953149  TIP3      580             0.0000000000
     15541       681  TIP3      OH2            28.0455145744      -24.7016096636       23.1348866130  TIP3      581             0.0000000000
     15542       681  TIP3      H1             28.7457135084      -24.0325365012       23.1551412441  TIP3      581             0.0000000000
     15543       681  TIP3      H2             27.2749594112      -24.1636816680       23.3901907706  TIP3      581             0.0000000000
     15544       682  TIP3      OH2            28.0010772342      -20.9559768266       34.5710184612  TIP3      582             0.0000000000
     15545       682  TIP3      H1             27.5384867889      -21.2278681907       35.3802956717  TIP3      582             0.0000000000
     15546       682  TIP3      H2             27.2444673658      -20.8013084997       33.9641901577  TIP3      582             0.0000000000
     15547       683  TIP3      OH2            28.8015004983      -13.9174718290       32.3566155879  TIP3      583             0.0000000000
     15548       683  TIP3      H1             29.3011833125      -14.5451141562       32.8883837169  TIP3      583             0.0000000000
     15549       683  TIP3      H2             28.2911181465      -13.4406351775       33.0321795946  TIP3      583             0.0000000000
     15550       684  TIP3      OH2            28.9341543480      -14.5125037382       25.6800547542  TIP3      584             0.0000000000
     15551       684  TIP3      H1             28.1171390782      -14.3675885903       26.1696775087  TIP3      584             0.0000000000
     15552       684  TIP3      H2             28.8258222348      -13.8976156311       24.9304099570  TIP3      584             0.0000000000
     15553       685  TIP3      OH2            28.3325329687      -11.4859996053       36.8956076548  TIP3      585             0.0000000000
     15554       685  TIP3      H1             29.2836955959      -11.6636583032       37.0310856082  TIP3      585             0.0000000000
     15555       685  TIP3      H2             27.9754074723      -12.3767027890       36.7781742442  TIP3      585             0.0000000000
     15556       686  TIP3      OH2            27.9070531246      -18.0511244603       38.0183720943  TIP3      586             0.0000000000
     15557       686  TIP3      H1             27.7258576901      -19.0061265500       37.9157650578  TIP3      586             0.0000000000
     15558       686  TIP3      H2             27.5095749746      -17.6849318573       37.1973578581  TIP3      586             0.0000000000
     15559       687  TIP3      OH2            28.6526401646      -20.8901832686       37.4902356903  TIP3      587             0.0000000000
     15560       687  TIP3      H1             29.0725775876      -21.6854771207       37.1302056218  TIP3      587             0.0000000000
     15561       687  TIP3      H2             29.1909117428      -20.7103740180       38.2872817541  TIP3      587             0.0000000000
     15562       688  TIP3      OH2            27.8930529602      -15.9568040833       21.6653645586  TIP3      588             0.0000000000
     15563       688  TIP3      H1             28.8330720291      -16.0818736842       21.4178581819  TIP3      588             0.0000000000
     15564       688  TIP3      H2             27.4362546339      -16.6907462266       21.2302909516  TIP3      588             0.0000000000
     15565       689  TIP3      OH2            26.6474061752      -11.0425704917       26.7250155241  TIP3      589             0.0000000000
     15566       689  TIP3      H1             26.0771705931      -11.6277447112       26.1661969832  TIP3      589             0.0000000000
     15567       689  TIP3      H2             27.0363990159      -11.6572653903       27.3914106780  TIP3      589             0.0000000000
     15568       690  TIP3      OH2            27.7655872967      -12.8114661153       28.3912188876  TIP3      590             0.0000000000
     15569       690  TIP3      H1             27.3670083145      -13.5831672363       28.8525808337  TIP3      590             0.0000000000
     15570       690  TIP3      H2             28.2376093804      -12.3660973313       29.1216483774  TIP3      590             0.0000000000
     15571       691  TIP3      OH2            27.8473285482      -19.0773219400       30.8420904644  TIP3      591             0.0000000000
     15572       691  TIP3      H1             27.7870939648      -19.5804883763       29.9994103074  TIP3      591             0.0000000000
     15573       691  TIP3      H2             28.8101862073      -19.1769340564       31.0185430875  TIP3      591             0.0000000000
     15574       692  TIP3      OH2            27.1319634456      -24.0214509235       36.1544040122  TIP3      592             0.0000000000
     15575       692  TIP3      H1             28.1044411477      -24.1076559673       36.1086503016  TIP3      592             0.0000000000
     15576       692  TIP3      H2             26.8948920940      -24.8742748314       36.5840715534  TIP3      592             0.0000000000
     15577       693  TIP3      OH2            28.3989375469      -26.1911622828       29.9806905951  TIP3      593             0.0000000000
     15578       693  TIP3      H1             28.8503516473      -27.0417673203       30.0372212350  TIP3      593             0.0000000000
     15579       693  TIP3      H2             29.1721987676      -25.5967530470       29.9160318381  TIP3      593             0.0000000000
     15580       694  TIP3      OH2            26.9125509085      -22.9327868566       30.3945833940  TIP3      594             0.0000000000
     15581       694  TIP3      H1             27.0986682520      -22.6074389098       29.5032104907  TIP3      594             0.0000000000
     15582       694  TIP3      H2             27.7799033923      -22.8565403747       30.8198499886  TIP3      594             0.0000000000
     15583       695  TIP3      OH2            27.4574270745      -26.6811460636       24.8502051957  TIP3      595             0.0000000000
     15584       695  TIP3      H1             26.5372612444      -26.6685609648       25.1401665327  TIP3      595             0.0000000000
     15585       695  TIP3      H2             27.4446334726      -25.9305624936       24.2281367705  TIP3      595             0.0000000000
     15586       696  TIP3      OH2            26.7720496353      -28.0790345893       33.2710827411  TIP3      596             0.0000000000
     15587       696  TIP3      H1             26.0118854844      -28.1551294680       33.8885535695  TIP3      596             0.0000000000
     15588       696  TIP3      H2             26.4293907386      -27.4070252903       32.6435375931  TIP3      596             0.0000000000
     15589       697  TIP3      OH2           -29.9485703640      -11.6217430372       30.7398040325  TIP3      597             0.0000000000
     15590       697  TIP3      H1            -29.9455131067      -12.1153365732       31.5768016129  TIP3      597             0.0000000000
     15591       697  TIP3      H2            -28.9834307322      -11.5898942740       30.5502141155  TIP3      597             0.0000000000
     15592       698  TIP3      OH2            28.2201704663      -12.6439412790       23.7604149072  TIP3      598             0.0000000000
     15593       698  TIP3      H1             27.2636503260      -12.6219846047       23.9391905054  TIP3      598             0.0000000000
     15594       698  TIP3      H2             28.4903445541      -11.8593037721       24.2872803954  TIP3      598             0.0000000000
     15595       699  TIP3      OH2           -17.2694471145       -0.3140710361       26.8040088259  TIP3      599             0.0000000000
     15596       699  TIP3      H1            -17.1648968114        0.5456123722       27.2436127562  TIP3      599             0.0000000000
     15597       699  TIP3      H2            -18.1062606093       -0.1846001815       26.3184902172  TIP3      599             0.0000000000
     15598       700  TIP3      OH2           -18.4094071188       -1.5574133095       30.2152840743  TIP3      600             0.0000000000
     15599       700  TIP3      H1            -18.1855779012       -1.9164755314       31.0918116342  TIP3      600             0.0000000000
     15600       700  TIP3      H2            -19.1651850147       -2.1537084279       30.0248707284  TIP3      600             0.0000000000
     15601       701  TIP3      OH2           -26.0653958701       -1.7010657656       31.6775342520  TIP3      601             0.0000000000
     15602       701  TIP3      H1            -26.1996365126       -2.4711282059       32.2507593395  TIP3      601             0.0000000000
     15603       701  TIP3      H2            -25.4557064572       -1.1483527652       32.1959385364  TIP3      601             0.0000000000
     15604       702  TIP3      OH2           -15.5417856649        1.6887987122       28.5124549524  TIP3      602             0.0000000000
     15605       702  TIP3      H1            -15.8827255893        1.0305573959       29.1247142411  TIP3      602             0.0000000000
     15606       702  TIP3      H2            -15.1532686726        2.3249169585       29.1339899396  TIP3      602             0.0000000000
     15607       703  TIP3      OH2           -25.8509832432        2.9746425875       29.5563514971  TIP3      603             0.0000000000
     15608       703  TIP3      H1            -26.0510621182        2.0194184273       29.4344073885  TIP3      603             0.0000000000
     15609       703  TIP3      H2            -24.9019319815        2.8595734739       29.7548068293  TIP3      603             0.0000000000
     15610       704  TIP3      OH2           -28.6486021268       -3.4222148994       25.6565908399  TIP3      604             0.0000000000
     15611       704  TIP3      H1            -29.1510140066       -2.6010382511       25.6983865439  TIP3      604             0.0000000000
     15612       704  TIP3      H2            -29.3516200213       -4.0569116508       25.8525201053  TIP3      604             0.0000000000
     15613       705  TIP3      OH2           -28.1118320708       -1.4469497311       28.3308735327  TIP3      605             0.0000000000
     15614       705  TIP3      H1            -27.6790752013       -2.3123312619       28.5173824349  TIP3      605             0.0000000000
     15615       705  TIP3      H2            -27.6260186831       -1.1686497100       27.5395604323  TIP3      605             0.0000000000
     15616       706  TIP3      OH2           -17.8839346198        7.2031629636       28.8371312461  TIP3      606             0.0000000000
     15617       706  TIP3      H1            -17.2234865564        6.5661478729       28.4711625526  TIP3      606             0.0000000000
     15618       706  TIP3      H2            -18.4605538058        6.6157010949       29.3406017348  TIP3      606             0.0000000000
     15619       707  TIP3      OH2           -20.7463712537        1.2180350898       31.4600513329  TIP3      607             0.0000000000
     15620       707  TIP3      H1            -20.4974361593        1.2840682259       30.5342777156  TIP3      607             0.0000000000
     15621       707  TIP3      H2            -19.8740113532        1.2342403911       31.9056690692  TIP3      607             0.0000000000
     15622       708  TIP3      OH2           -11.9509002226       -7.1905052428       30.9032105377  TIP3      608             0.0000000000
     15623       708  TIP3      H1            -11.6875473950       -6.8956079975       31.8007078450  TIP3      608             0.0000000000
     15624       708  TIP3      H2            -11.1156264083       -7.0746522568       30.4118961344  TIP3      608             0.0000000000
     15625       709  TIP3      OH2           -17.0349914450       -4.3330377782       31.1968545617  TIP3      609             0.0000000000
     15626       709  TIP3      H1            -16.6675022958       -5.1424806516       31.5766584546  TIP3      609             0.0000000000
     15627       709  TIP3      H2            -17.0391005042       -4.5635867007       30.2458650983  TIP3      609             0.0000000000
     15628       710  TIP3      OH2           -24.4195560482       -5.9799911799       28.1055495499  TIP3      610             0.0000000000
     15629       710  TIP3      H1            -23.7298769027       -5.7121553155       27.4750062955  TIP3      610             0.0000000000
     15630       710  TIP3      H2            -24.9345147803       -6.5669364555       27.5144453267  TIP3      610             0.0000000000
     15631       711  TIP3      OH2           -16.0877831087       -6.3093034939       26.4819444576  TIP3      611             0.0000000000
     15632       711  TIP3      H1            -15.7144266152       -6.3406453028       27.3899046983  TIP3      611             0.0000000000
     15633       711  TIP3      H2            -15.4466152243       -5.6714334740       26.0905959723  TIP3      611             0.0000000000
     15634       712  TIP3      OH2           -26.8049724295       -4.0241234647       28.7762090494  TIP3      612             0.0000000000
     15635       712  TIP3      H1            -26.1488764428       -4.5164183995       29.2920141125  TIP3      612             0.0000000000
     15636       712  TIP3      H2            -26.6053830176       -4.3672675689       27.8746377082  TIP3      612             0.0000000000
     15637       713  TIP3      OH2           -22.7816286839       -2.2712660758       28.1399369871  TIP3      613             0.0000000000
     15638       713  TIP3      H1            -22.0005816079       -2.8224711347       28.2962018605  TIP3      613             0.0000000000
     15639       713  TIP3      H2            -23.3095484359       -2.8668879473       27.5478747238  TIP3      613             0.0000000000
     15640       714  TIP3      OH2           -11.7743964271       -6.0672343435       33.4645186343  TIP3      614             0.0000000000
     15641       714  TIP3      H1            -12.1043995912       -5.2211616931       33.0860753254  TIP3      614             0.0000000000
     15642       714  TIP3      H2            -11.3516646117       -5.7121706124       34.2616563703  TIP3      614             0.0000000000
     15643       715  TIP3      OH2           -25.2071650305       -7.5917455715       32.4633849680  TIP3      615             0.0000000000
     15644       715  TIP3      H1            -25.4510952207       -6.9089189696       31.7900665344  TIP3      615             0.0000000000
     15645       715  TIP3      H2            -25.7139659380       -7.2782469626       33.2368415752  TIP3      615             0.0000000000
     15646       716  TIP3      OH2           -18.3400232370        2.4101126796       25.7653342616  TIP3      616             0.0000000000
     15647       716  TIP3      H1            -19.0169298331        2.5999469938       25.0889744784  TIP3      616             0.0000000000
     15648       716  TIP3      H2            -18.4399665190        3.1757287318       26.3702535995  TIP3      616             0.0000000000
     15649       717  TIP3      OH2           -23.1464795286        0.2366031487       32.2547509734  TIP3      617             0.0000000000
     15650       717  TIP3      H1            -23.7726081253        0.9045118154       32.6063818980  TIP3      617             0.0000000000
     15651       717  TIP3      H2            -22.4017329390        0.8127509395       31.9566160208  TIP3      617             0.0000000000
     15652       718  TIP3      OH2           -14.6097385530       -6.0612562713       28.9762604495  TIP3      618             0.0000000000
     15653       718  TIP3      H1            -15.0617260084       -6.8395487427       29.3310026611  TIP3      618             0.0000000000
     15654       718  TIP3      H2            -13.9765195365       -5.8390186713       29.6977673852  TIP3      618             0.0000000000
     15655       719  TIP3      OH2           -25.3464398591       -5.6887697701       30.5871077546  TIP3      619             0.0000000000
     15656       719  TIP3      H1            -24.6690830744       -5.1016036870       31.0060702546  TIP3      619             0.0000000000
     15657       719  TIP3      H2            -24.9086198618       -5.8860426369       29.7133403703  TIP3      619             0.0000000000
     15658       720  TIP3      OH2           -24.4937357449        2.6636464643       32.8748074292  TIP3      620             0.0000000000
     15659       720  TIP3      H1            -24.6390323045        3.5307808959       32.4818943634  TIP3      620             0.0000000000
     15660       720  TIP3      H2            -25.3376691150        2.5330698900       33.3679489942  TIP3      620             0.0000000000
     15661       721  TIP3      OH2           -28.2168600579        2.2449131642       23.7435968062  TIP3      621             0.0000000000
     15662       721  TIP3      H1            -29.0576214582        2.5303451496       23.3385432024  TIP3      621             0.0000000000
     15663       721  TIP3      H2            -28.4650923749        2.1147200320       24.6775184749  TIP3      621             0.0000000000
     15664       722  TIP3      OH2           -14.8130375134        3.5534924288       30.7082587116  TIP3      622             0.0000000000
     15665       722  TIP3      H1            -15.7537813972        3.7955613203       30.8698308975  TIP3      622             0.0000000000
     15666       722  TIP3      H2            -14.5102694474        4.4123909796       30.3662506862  TIP3      622             0.0000000000
     15667       723  TIP3      OH2           -14.8120016273       -8.0090737623       32.0893137757  TIP3      623             0.0000000000
     15668       723  TIP3      H1            -15.5770220321       -7.8481234284       31.4999342933  TIP3      623             0.0000000000
     15669       723  TIP3      H2            -14.1079000974       -7.5656528746       31.5857931430  TIP3      623             0.0000000000
     15670       724  TIP3      OH2           -21.6846337615      -10.0012131790       30.0553196410  TIP3      624             0.0000000000
     15671       724  TIP3      H1            -22.0164680017      -10.8973038194       29.9372791644  TIP3      624             0.0000000000
     15672       724  TIP3      H2            -22.5390455565       -9.4946223069       30.1356833336  TIP3      624             0.0000000000
     15673       725  TIP3      OH2           -16.1773476899        5.5019836317       27.5639024454  TIP3      625             0.0000000000
     15674       725  TIP3      H1            -16.0780458804        4.7493322607       26.9459603366  TIP3      625             0.0000000000
     15675       725  TIP3      H2            -15.4230874223        6.0649454236       27.2585759904  TIP3      625             0.0000000000
     15676       726  TIP3      OH2           -14.8708082601        3.1380744250       25.7415172645  TIP3      626             0.0000000000
     15677       726  TIP3      H1            -15.0343010416        2.4734467799       25.0371971520  TIP3      626             0.0000000000
     15678       726  TIP3      H2            -15.1289777705        2.6262405840       26.5327514254  TIP3      626             0.0000000000
     15679       727  TIP3      OH2           -13.6769496864        2.0477256204       34.4755332570  TIP3      627             0.0000000000
     15680       727  TIP3      H1            -13.5869224731        1.2360829810       33.9233012932  TIP3      627             0.0000000000
     15681       727  TIP3      H2            -13.4532583069        2.7385811995       33.8186071835  TIP3      627             0.0000000000
     15682       728  TIP3      OH2           -19.1468179588       -0.8317215245       24.4340872199  TIP3      628             0.0000000000
     15683       728  TIP3      H1            -19.5872560437        0.0448057062       24.2871196487  TIP3      628             0.0000000000
     15684       728  TIP3      H2            -18.5717810612       -0.8864195719       23.6534074649  TIP3      628             0.0000000000
     15685       729  TIP3      OH2           -18.5413386774       -2.3734755808       21.3435498636  TIP3      629             0.0000000000
     15686       729  TIP3      H1            -17.6287065847       -2.6366999642       21.4682735182  TIP3      629             0.0000000000
     15687       729  TIP3      H2            -18.4053562853       -1.6582233860       20.6865334799  TIP3      629             0.0000000000
     15688       730  TIP3      OH2           -11.7654561042       -1.6751153750       32.3183188329  TIP3      630             0.0000000000
     15689       730  TIP3      H1            -12.4580445922       -0.9739198398       32.3384805380  TIP3      630             0.0000000000
     15690       730  TIP3      H2            -11.0753572115       -1.2229858019       31.7893267664  TIP3      630             0.0000000000
     15691       731  TIP3      OH2           -15.2330399203       -1.0439008496       25.0491600202  TIP3      631             0.0000000000
     15692       731  TIP3      H1            -15.9929898042       -0.8145720310       25.6148498229  TIP3      631             0.0000000000
     15693       731  TIP3      H2            -14.6639826923       -1.4926192200       25.6997574598  TIP3      631             0.0000000000
     15694       732  TIP3      OH2           -15.6211010616       -2.7038749067       34.4277842893  TIP3      632             0.0000000000
     15695       732  TIP3      H1            -15.4863880209       -1.8193885559       34.8055149554  TIP3      632             0.0000000000
     15696       732  TIP3      H2            -16.3764734768       -2.4951752568       33.8402900305  TIP3      632             0.0000000000
     15697       733  TIP3      OH2           -23.6308479484       -0.1397048062       26.7962630525  TIP3      633             0.0000000000
     15698       733  TIP3      H1            -24.1489863199       -0.6142481685       26.1116124587  TIP3      633             0.0000000000
     15699       733  TIP3      H2            -23.2357481084       -0.8890053251       27.2997922203  TIP3      633             0.0000000000
     15700       734  TIP3      OH2           -22.9044703920        2.9037210514       29.6004403854  TIP3      634             0.0000000000
     15701       734  TIP3      H1            -22.8343401271        3.0280981834       28.6284880421  TIP3      634             0.0000000000
     15702       734  TIP3      H2            -22.0509738584        2.5389028506       29.8675135959  TIP3      634             0.0000000000
     15703       735  TIP3      OH2           -23.5447666041       -1.8514896788       30.5859250009  TIP3      635             0.0000000000
     15704       735  TIP3      H1            -23.2927521545       -1.7286029439       29.6443938934  TIP3      635             0.0000000000
     15705       735  TIP3      H2            -23.1530254113       -1.0897695193       31.0563855327  TIP3      635             0.0000000000
     15706       736  TIP3      OH2           -17.3357705058        4.1501014236       31.4178924162  TIP3      636             0.0000000000
     15707       736  TIP3      H1            -17.6785730330        4.7395781296       32.1117683129  TIP3      636             0.0000000000
     15708       736  TIP3      H2            -17.4226472417        3.2715465993       31.8466973712  TIP3      636             0.0000000000
     15709       737  TIP3      OH2           -22.8904552998        2.8077924981       35.1065418560  TIP3      637             0.0000000000
     15710       737  TIP3      H1            -23.5147920002        3.3559006332       35.6399592875  TIP3      637             0.0000000000
     15711       737  TIP3      H2            -23.4217683418        2.6868915488       34.2853755781  TIP3      637             0.0000000000
     15712       738  TIP3      OH2           -25.7365655748       -0.7361459335       34.3289264823  TIP3      638             0.0000000000
     15713       738  TIP3      H1            -25.9274180023       -0.1489454544       35.0812578394  TIP3      638             0.0000000000
     15714       738  TIP3      H2            -26.5556248100       -1.2802968081       34.3322921518  TIP3      638             0.0000000000
     15715       739  TIP3      OH2           -18.6779701842        4.7303831577       27.0751022797  TIP3      639             0.0000000000
     15716       739  TIP3      H1            -17.8697353432        5.1880152647       27.3910132047  TIP3      639             0.0000000000
     15717       739  TIP3      H2            -19.3124986095        5.4492820155       26.9854218731  TIP3      639             0.0000000000
     15718       740  TIP3      OH2           -24.2604041996        4.6595244002       36.5502982348  TIP3      640             0.0000000000
     15719       740  TIP3      H1            -24.3380975841        5.2673536274       35.7782512684  TIP3      640             0.0000000000
     15720       740  TIP3      H2            -25.2055654767        4.5361194074       36.7645310589  TIP3      640             0.0000000000
     15721       741  TIP3      OH2           -12.9166739703      -10.1865395519       23.1843860910  TIP3      641             0.0000000000
     15722       741  TIP3      H1            -13.6468053218       -9.6833538675       23.6248030874  TIP3      641             0.0000000000
     15723       741  TIP3      H2            -13.1958023056      -10.2025694355       22.2541358465  TIP3      641             0.0000000000
     15724       742  TIP3      OH2           -25.2505424988       -1.1049215352       24.7121127983  TIP3      642             0.0000000000
     15725       742  TIP3      H1            -25.4755685192       -0.4229314900       24.0363675797  TIP3      642             0.0000000000
     15726       742  TIP3      H2            -25.3830659896       -1.9266158419       24.2261760705  TIP3      642             0.0000000000
     15727       743  TIP3      OH2           -28.6867562593        1.4215186055       34.0965747354  TIP3      643             0.0000000000
     15728       743  TIP3      H1            -29.6584556207        1.3379089860       34.0144945161  TIP3      643             0.0000000000
     15729       743  TIP3      H2            -28.3809224200        0.7406815305       33.4751779920  TIP3      643             0.0000000000
     15730       744  TIP3      OH2           -28.7321859214        4.2878406357       29.9759640622  TIP3      644             0.0000000000
     15731       744  TIP3      H1            -27.8413751490        3.9000570730       29.9663022614  TIP3      644             0.0000000000
     15732       744  TIP3      H2            -28.7293232072        4.6327309792       30.8888466097  TIP3      644             0.0000000000
     15733       745  TIP3      OH2           -11.0608557002        4.5216922216       36.0447741533  TIP3      645             0.0000000000
     15734       745  TIP3      H1            -11.2010793541        3.5616405522       36.0656181996  TIP3      645             0.0000000000
     15735       745  TIP3      H2            -11.8568297662        4.8161874156       36.5609259643  TIP3      645             0.0000000000
     15736       746  TIP3      OH2           -20.4282498519        4.0715480302       34.9427359173  TIP3      646             0.0000000000
     15737       746  TIP3      H1            -20.2817269059        4.8312629110       35.5360288540  TIP3      646             0.0000000000
     15738       746  TIP3      H2            -21.3800578607        3.8315510033       35.0480069220  TIP3      646             0.0000000000
     15739       747  TIP3      OH2           -19.9619774484        7.9309904823       24.1413178843  TIP3      647             0.0000000000
     15740       747  TIP3      H1            -20.1561969146        8.2253477991       23.2391252423  TIP3      647             0.0000000000
     15741       747  TIP3      H2            -19.6826432069        8.7337071536       24.6284573972  TIP3      647             0.0000000000
     15742       748  TIP3      OH2           -25.4464013250        6.5472007267       26.6878883373  TIP3      648             0.0000000000
     15743       748  TIP3      H1            -25.3274150751        6.2030556606       27.5973408322  TIP3      648             0.0000000000
     15744       748  TIP3      H2            -26.2443076762        6.0554635797       26.4095494670  TIP3      648             0.0000000000
     15745       749  TIP3      OH2           -16.6630913918        6.7726301961       21.8624455365  TIP3      649             0.0000000000
     15746       749  TIP3      H1            -16.7482832761        6.0436861077       22.4967250075  TIP3      649             0.0000000000
     15747       749  TIP3      H2            -16.4385666727        7.5069068181       22.4553786754  TIP3      649             0.0000000000
     15748       750  TIP3      OH2           -17.1466006334        6.8675289224       24.5505617462  TIP3      650             0.0000000000
     15749       750  TIP3      H1            -18.1153080431        6.8171440526       24.3920169273  TIP3      650             0.0000000000
     15750       750  TIP3      H2            -16.9653582463        6.0518807620       25.0260794330  TIP3      650             0.0000000000
     15751       751  TIP3      OH2           -13.9976198104       -4.1185790243       36.6292522642  TIP3      651             0.0000000000
     15752       751  TIP3      H1            -14.6409050851       -3.7940897095       35.9748845923  TIP3      651             0.0000000000
     15753       751  TIP3      H2            -13.9913826245       -5.0822409207       36.4532424614  TIP3      651             0.0000000000
     15754       752  TIP3      OH2           -26.4855289010        2.6993044273       34.7461043955  TIP3      652             0.0000000000
     15755       752  TIP3      H1            -26.2694038707        2.1534732189       35.5392131946  TIP3      652             0.0000000000
     15756       752  TIP3      H2            -27.3773545325        2.3097179543       34.5585742034  TIP3      652             0.0000000000
     15757       753  TIP3      OH2           -24.0666632343       -8.9986364476       30.5599021821  TIP3      653             0.0000000000
     15758       753  TIP3      H1            -24.9892224050       -9.1213758136       30.2414679063  TIP3      653             0.0000000000
     15759       753  TIP3      H2            -24.1937558046       -8.3996658680       31.3248265730  TIP3      653             0.0000000000
     15760       754  TIP3      OH2           -19.0195142582       -9.1919208062       33.5601679879  TIP3      654             0.0000000000
     15761       754  TIP3      H1            -18.7654658268       -9.5531427318       34.4416972781  TIP3      654             0.0000000000
     15762       754  TIP3      H2            -19.9994756013       -9.1092398611       33.6438748855  TIP3      654             0.0000000000
     15763       755  TIP3      OH2           -16.1473235572       -5.4055123250       34.6795748348  TIP3      655             0.0000000000
     15764       755  TIP3      H1            -16.6311471716       -5.5776888648       35.5191501301  TIP3      655             0.0000000000
     15765       755  TIP3      H2            -16.0705891151       -4.4328626786       34.6638393625  TIP3      655             0.0000000000
     15766       756  TIP3      OH2           -23.6188973522       -4.1290132304       31.7764504135  TIP3      656             0.0000000000
     15767       756  TIP3      H1            -24.0418557969       -3.8678467985       32.6179894936  TIP3      656             0.0000000000
     15768       756  TIP3      H2            -23.7336462893       -3.2866924828       31.2694667890  TIP3      656             0.0000000000
     15769       757  TIP3      OH2           -24.0405642234       -3.7282608768       26.3530419401  TIP3      657             0.0000000000
     15770       757  TIP3      H1            -24.9034457107       -4.2026400968       26.4152995612  TIP3      657             0.0000000000
     15771       757  TIP3      H2            -23.4133846216       -4.4179684095       26.0266285228  TIP3      657             0.0000000000
     15772       758  TIP3      OH2           -18.4013565439       -3.0226325556       25.7921630588  TIP3      658             0.0000000000
     15773       758  TIP3      H1            -18.8116759305       -2.1858914663       25.4770237696  TIP3      658             0.0000000000
     15774       758  TIP3      H2            -17.6340464434       -3.0543524440       25.2174928641  TIP3      658             0.0000000000
     15775       759  TIP3      OH2           -19.9600834223       -3.0423634398       37.0507877052  TIP3      659             0.0000000000
     15776       759  TIP3      H1            -20.3731593454       -3.8799860154       37.3592825610  TIP3      659             0.0000000000
     15777       759  TIP3      H2            -19.0747497774       -3.1330060517       37.4496474193  TIP3      659             0.0000000000
     15778       760  TIP3      OH2           -17.0348672568       -3.9915925689       28.2276679813  TIP3      660             0.0000000000
     15779       760  TIP3      H1            -17.3337786266       -3.1045076832       27.9714075981  TIP3      660             0.0000000000
     15780       760  TIP3      H2            -17.3103247532       -4.4907012219       27.4452386307  TIP3      660             0.0000000000
     15781       761  TIP3      OH2           -26.6373868906       -4.1285508756       33.2218077700  TIP3      661             0.0000000000
     15782       761  TIP3      H1            -25.9706824992       -3.7215100861       33.8055188466  TIP3      661             0.0000000000
     15783       761  TIP3      H2            -26.7310713885       -4.9942137710       33.6556917360  TIP3      661             0.0000000000
     15784       762  TIP3      OH2           -28.8314775782       -6.6020375488       27.6473353206  TIP3      662             0.0000000000
     15785       762  TIP3      H1            -28.3509396376       -6.9349361073       28.4302956245  TIP3      662             0.0000000000
     15786       762  TIP3      H2            -28.3468610730       -7.0012650956       26.9040517965  TIP3      662             0.0000000000
     15787       763  TIP3      OH2           -18.0383791138       -2.2100136429       32.8719024891  TIP3      663             0.0000000000
     15788       763  TIP3      H1            -17.5864404264       -2.9146860618       32.3691731685  TIP3      663             0.0000000000
     15789       763  TIP3      H2            -18.7021760643       -2.7387983312       33.3845845508  TIP3      663             0.0000000000
     15790       764  TIP3      OH2           -21.6466012389       -7.1713224036       28.5675253524  TIP3      664             0.0000000000
     15791       764  TIP3      H1            -22.0496793299       -6.7792340702       27.7646450796  TIP3      664             0.0000000000
     15792       764  TIP3      H2            -20.7177532185       -7.1706041913       28.3213421859  TIP3      664             0.0000000000
     15793       765  TIP3      OH2           -26.4533413090       -4.8379388948       26.2716910182  TIP3      665             0.0000000000
     15794       765  TIP3      H1            -27.2632244940       -4.4471569914       25.8879774501  TIP3      665             0.0000000000
     15795       765  TIP3      H2            -26.3700659878       -5.7037760580       25.8316037679  TIP3      665             0.0000000000
     15796       766  TIP3      OH2           -23.4847796867       -4.9822156419       23.2926533100  TIP3      666             0.0000000000
     15797       766  TIP3      H1            -22.8366654184       -5.6376921248       23.6195457820  TIP3      666             0.0000000000
     15798       766  TIP3      H2            -23.3725124137       -4.2781778490       23.9473138634  TIP3      666             0.0000000000
     15799       767  TIP3      OH2           -16.8625400754       -7.2120628797       30.6468176824  TIP3      667             0.0000000000
     15800       767  TIP3      H1            -17.6177018459       -7.0669897072       31.2395210072  TIP3      667             0.0000000000
     15801       767  TIP3      H2            -17.2338007558       -7.8699531083       30.0175182564  TIP3      667             0.0000000000
     15802       768  TIP3      OH2           -24.5120417725       -2.6264288761       21.3094343947  TIP3      668             0.0000000000
     15803       768  TIP3      H1            -25.2418441933       -2.2564521662       20.7414685396  TIP3      668             0.0000000000
     15804       768  TIP3      H2            -24.5753741535       -3.5744494081       21.1288318340  TIP3      668             0.0000000000
     15805       769  TIP3      OH2           -14.0698021103        8.3029373243       37.5220070631  TIP3      669             0.0000000000
     15806       769  TIP3      H1            -13.4988700141        8.7342292613       36.8495939705  TIP3      669             0.0000000000
     15807       769  TIP3      H2            -13.6268979823        8.5553227463       38.3429404774  TIP3      669             0.0000000000
     15808       770  TIP3      OH2           -26.1113178179        1.1146537301       36.7331895956  TIP3      670             0.0000000000
     15809       770  TIP3      H1            -25.5361201780        1.1248689005       37.5283024865  TIP3      670             0.0000000000
     15810       770  TIP3      H2            -26.9990491074        0.9140243310       37.1189375297  TIP3      670             0.0000000000
     15811       771  TIP3      OH2           -20.0169410641       -3.5616331783       29.7161208045  TIP3      671             0.0000000000
     15812       771  TIP3      H1            -19.6290900165       -3.7494449747       28.8521274209  TIP3      671             0.0000000000
     15813       771  TIP3      H2            -20.2555345121       -4.4478116185       30.0054511256  TIP3      671             0.0000000000
     15814       772  TIP3      OH2           -25.4057665369       -7.3935364576       26.1265235402  TIP3      672             0.0000000000
     15815       772  TIP3      H1            -25.6385389084       -8.3295156183       26.2850595389  TIP3      672             0.0000000000
     15816       772  TIP3      H2            -24.4701186924       -7.4135771549       25.8769059120  TIP3      672             0.0000000000
     15817       773  TIP3      OH2           -21.5368312264       -5.6952223566       31.8132313822  TIP3      673             0.0000000000
     15818       773  TIP3      H1            -22.2749154462       -5.1156848585       31.5216501309  TIP3      673             0.0000000000
     15819       773  TIP3      H2            -20.9109856436       -5.0698805642       32.1854383444  TIP3      673             0.0000000000
     15820       774  TIP3      OH2           -20.8446987604        1.1025871489       23.9533913503  TIP3      674             0.0000000000
     15821       774  TIP3      H1            -21.4849718506        0.4606989604       23.5847681896  TIP3      674             0.0000000000
     15822       774  TIP3      H2            -21.3197335796        1.4806133563       24.7094777648  TIP3      674             0.0000000000
     15823       775  TIP3      OH2           -13.4771290187        0.3140945405       32.5137020029  TIP3      675             0.0000000000
     15824       775  TIP3      H1            -12.9714620402        0.9146771184       31.9166199392  TIP3      675             0.0000000000
     15825       775  TIP3      H2            -14.2802702898        0.2039925667       31.9691317572  TIP3      675             0.0000000000
     15826       776  TIP3      OH2           -17.6925623893       -5.8836685745       22.5016980970  TIP3      676             0.0000000000
     15827       776  TIP3      H1            -18.5394281131       -5.7411823786       23.0025406759  TIP3      676             0.0000000000
     15828       776  TIP3      H2            -17.7407065345       -5.1305710243       21.9012001024  TIP3      676             0.0000000000
     15829       777  TIP3      OH2           -19.9721385181        1.1862734739       35.0309025168  TIP3      677             0.0000000000
     15830       777  TIP3      H1            -20.5366626455        0.9694191595       35.7938605396  TIP3      677             0.0000000000
     15831       777  TIP3      H2            -20.0527815932        2.1522655267       35.0198798175  TIP3      677             0.0000000000
     15832       778  TIP3      OH2           -25.6647850579        0.2945696792       29.3160594985  TIP3      678             0.0000000000
     15833       778  TIP3      H1            -25.0367667585        0.1597177909       28.5931009526  TIP3      678             0.0000000000
     15834       778  TIP3      H2            -25.5093838709       -0.4548474641       29.9204405990  TIP3      678             0.0000000000
     15835       779  TIP3      OH2           -28.4549069119       -1.6151458963       34.3093644248  TIP3      679             0.0000000000
     15836       779  TIP3      H1            -28.3387957472       -1.7521044931       35.2602876067  TIP3      679             0.0000000000
     15837       779  TIP3      H2            -29.3856127664       -1.9259759718       34.2523219455  TIP3      679             0.0000000000
     15838       780  TIP3      OH2           -22.2838650361       -1.6790109090       36.3490507552  TIP3      680             0.0000000000
     15839       780  TIP3      H1            -21.9487371904       -1.8961638999       35.4578515342  TIP3      680             0.0000000000
     15840       780  TIP3      H2            -21.4872272003       -1.9174312591       36.8617308316  TIP3      680             0.0000000000
     15841       781  TIP3      OH2           -16.8985153470        3.6039183217       35.0403348613  TIP3      681             0.0000000000
     15842       781  TIP3      H1            -17.6600620824        3.7654503687       34.4662252333  TIP3      681             0.0000000000
     15843       781  TIP3      H2            -17.2178121834        3.9997748726       35.8797466753  TIP3      681             0.0000000000
     15844       782  TIP3      OH2           -11.1073701107       -4.4862866926       23.6787510107  TIP3      682             0.0000000000
     15845       782  TIP3      H1            -11.8561383479       -4.3504374596       23.0748637210  TIP3      682             0.0000000000
     15846       782  TIP3      H2            -10.6438356539       -3.6341162018       23.6128073914  TIP3      682             0.0000000000
     15847       783  TIP3      OH2           -11.2685075651        1.5001679253       35.8907716926  TIP3      683             0.0000000000
     15848       783  TIP3      H1            -12.1689528907        1.7169105362       35.5678864365  TIP3      683             0.0000000000
     15849       783  TIP3      H2            -10.7348888963        1.5785639176       35.0654574381  TIP3      683             0.0000000000
     15850       784  TIP3      OH2           -12.9605754636        4.4051515672       23.3772921326  TIP3      684             0.0000000000
     15851       784  TIP3      H1            -13.1045566396        3.8177240823       24.1402643011  TIP3      684             0.0000000000
     15852       784  TIP3      H2            -11.9997114265        4.4882662312       23.3078085678  TIP3      684             0.0000000000
     15853       785  TIP3      OH2           -15.9592733724       -0.5232962134       30.7856597528  TIP3      685             0.0000000000
     15854       785  TIP3      H1            -16.8647351631       -0.8033121064       30.5326251132  TIP3      685             0.0000000000
     15855       785  TIP3      H2            -15.4552552875       -1.2267619974       30.3221638519  TIP3      685             0.0000000000
     15856       786  TIP3      OH2           -23.5011327315        3.7916728747       27.0666553692  TIP3      686             0.0000000000
     15857       786  TIP3      H1            -23.2343959028        4.6232588770       26.6216441831  TIP3      686             0.0000000000
     15858       786  TIP3      H2            -24.4525433360        3.7673864935       26.8659299448  TIP3      686             0.0000000000
     15859       787  TIP3      OH2           -21.7290586309        1.8557143786       26.6379717483  TIP3      687             0.0000000000
     15860       787  TIP3      H1            -22.3672980119        2.6023720747       26.6412914961  TIP3      687             0.0000000000
     15861       787  TIP3      H2            -22.2987274143        1.0796383257       26.7998821179  TIP3      687             0.0000000000
     15862       788  TIP3      OH2           -21.7369895608        5.7978811738       33.1821984799  TIP3      688             0.0000000000
     15863       788  TIP3      H1            -21.0214875596        6.3307937109       32.7923896387  TIP3      688             0.0000000000
     15864       788  TIP3      H2            -21.2062511797        5.2577990491       33.8055079640  TIP3      688             0.0000000000
     15865       789  TIP3      OH2           -22.8988965265        6.3244893415       25.8777810038  TIP3      689             0.0000000000
     15866       789  TIP3      H1            -23.8449022250        6.4634169153       26.0766899160  TIP3      689             0.0000000000
     15867       789  TIP3      H2            -22.5699152103        7.2205195741       26.1117648897  TIP3      689             0.0000000000
     15868       790  TIP3      OH2           -18.1071481599        1.4006790321       32.4928468413  TIP3      690             0.0000000000
     15869       790  TIP3      H1            -18.3131452378        0.9424430526       33.3333055385  TIP3      690             0.0000000000
     15870       790  TIP3      H2            -17.4568317465        0.7974774741       32.1011545928  TIP3      690             0.0000000000
     15871       791  TIP3      OH2           -15.0567865618        5.9722247534       34.9083895664  TIP3      691             0.0000000000
     15872       791  TIP3      H1            -15.8681497011        5.4281193747       34.8641609313  TIP3      691             0.0000000000
     15873       791  TIP3      H2            -15.1560451020        6.5948045525       34.1513025832  TIP3      691             0.0000000000
     15874       792  TIP3      OH2           -11.0592457073        6.7982367489       22.0448163322  TIP3      692             0.0000000000
     15875       792  TIP3      H1            -10.8867469754        7.0282558376       21.1132146978  TIP3      692             0.0000000000
     15876       792  TIP3      H2            -11.6048957723        7.5599180325       22.3281709892  TIP3      692             0.0000000000
     15877       793  TIP3      OH2           -26.8083596174       -6.6626424798       34.5181776635  TIP3      693             0.0000000000
     15878       793  TIP3      H1            -27.5631916326       -6.2221130566       34.9546794166  TIP3      693             0.0000000000
     15879       793  TIP3      H2            -26.9056449096       -7.5738585387       34.8562221861  TIP3      693             0.0000000000
     15880       794  TIP3      OH2           -14.8736413787        1.2827245352       23.5494921508  TIP3      694             0.0000000000
     15881       794  TIP3      H1            -15.1641223317        0.3733351614       23.7804966366  TIP3      694             0.0000000000
     15882       794  TIP3      H2            -13.9204132304        1.1459708956       23.4016067826  TIP3      694             0.0000000000
     15883       795  TIP3      OH2           -27.4169501189        5.1318989469       32.4726005095  TIP3      695             0.0000000000
     15884       795  TIP3      H1            -26.9341908490        4.3233334422       32.6596758819  TIP3      695             0.0000000000
     15885       795  TIP3      H2            -27.1259342520        5.6755441484       33.2274392762  TIP3      695             0.0000000000
     15886       796  TIP3      OH2           -26.0037602190        0.7255082304       22.8646271584  TIP3      696             0.0000000000
     15887       796  TIP3      H1            -26.7999120160        1.1140031726       23.2864713591  TIP3      696             0.0000000000
     15888       796  TIP3      H2            -25.5885072068        1.5372010289       22.5162389699  TIP3      696             0.0000000000
     15889       797  TIP3      OH2           -18.4630208204       -6.4234825249       33.5275738587  TIP3      697             0.0000000000
     15890       797  TIP3      H1            -17.5427657373       -6.3486344461       33.8402194431  TIP3      697             0.0000000000
     15891       797  TIP3      H2            -18.6467927164       -7.3777490182       33.5471196323  TIP3      697             0.0000000000
     15892       798  TIP3      OH2           -17.2865169272       -7.7306533129       24.5432918821  TIP3      698             0.0000000000
     15893       798  TIP3      H1            -17.2839203906       -7.0773191498       23.8079127286  TIP3      698             0.0000000000
     15894       798  TIP3      H2            -16.8764631451       -7.2013876269       25.2683965368  TIP3      698             0.0000000000
     15895       799  TIP3      OH2           -19.5917683016        4.9728403359       22.6578971847  TIP3      699             0.0000000000
     15896       799  TIP3      H1            -20.4059826793        5.4664145538       22.7987400919  TIP3      699             0.0000000000
     15897       799  TIP3      H2            -19.2983226897        5.2971622418       21.8004701920  TIP3      699             0.0000000000
     15898       800  TIP3      OH2           -19.7334618201       -5.0574590560       24.0772782800  TIP3      700             0.0000000000
     15899       800  TIP3      H1            -19.5278371340       -4.2337014325       24.5408573035  TIP3      700             0.0000000000
     15900       800  TIP3      H2            -20.5340571526       -5.3798129305       24.5537473221  TIP3      700             0.0000000000
     15901       801  TIP3      OH2           -19.4708029187       -3.9809588318       34.4223552833  TIP3      701             0.0000000000
     15902       801  TIP3      H1            -19.6426667463       -3.8385458088       35.3755371492  TIP3      701             0.0000000000
     15903       801  TIP3      H2            -19.1146482742       -4.9003128181       34.3433872345  TIP3      701             0.0000000000
     15904       802  TIP3      OH2           -19.3871826629       -8.3880792944       26.3350008928  TIP3      702             0.0000000000
     15905       802  TIP3      H1            -19.9927795922       -7.7085204449       25.9939093291  TIP3      702             0.0000000000
     15906       802  TIP3      H2            -18.5908310535       -8.2060270967       25.7866708258  TIP3      702             0.0000000000
     15907       803  TIP3      OH2           -22.8498338994        6.1857542363       22.8352664872  TIP3      703             0.0000000000
     15908       803  TIP3      H1            -22.3675689149        6.7990725926       22.2586081829  TIP3      703             0.0000000000
     15909       803  TIP3      H2            -22.5777733143        6.4456468769       23.7300489634  TIP3      703             0.0000000000
     15910       804  TIP3      OH2           -13.7909244022       -6.6315695219       35.4004878299  TIP3      704             0.0000000000
     15911       804  TIP3      H1            -14.7279825018       -6.6471596010       35.1284436446  TIP3      704             0.0000000000
     15912       804  TIP3      H2            -13.3387778910       -6.5140128763       34.5425126485  TIP3      704             0.0000000000
     15913       805  TIP3      OH2           -14.9072282506       -2.7619407111       29.4043552443  TIP3      705             0.0000000000
     15914       805  TIP3      H1            -15.5843107133       -3.3538147536       29.0136715422  TIP3      705             0.0000000000
     15915       805  TIP3      H2            -14.2416241842       -3.3993129485       29.7465664101  TIP3      705             0.0000000000
     15916       806  TIP3      OH2           -25.5203366195        3.2714948810       21.7883028692  TIP3      706             0.0000000000
     15917       806  TIP3      H1            -25.1295684492        4.0324956514       22.2444415452  TIP3      706             0.0000000000
     15918       806  TIP3      H2            -26.4804816941        3.4384262304       21.8043329146  TIP3      706             0.0000000000
     15919       807  TIP3      OH2           -14.2307698713        6.3119654534       30.7800001972  TIP3      707             0.0000000000
     15920       807  TIP3      H1            -14.2563850714        6.9800932834       30.0691304291  TIP3      707             0.0000000000
     15921       807  TIP3      H2            -13.2830731348        6.3172488009       31.0035807000  TIP3      707             0.0000000000
     15922       808  TIP3      OH2           -26.4792816958       -9.5484724000       29.7252112499  TIP3      708             0.0000000000
     15923       808  TIP3      H1            -26.5115657718       -9.6839235847       28.7513132716  TIP3      708             0.0000000000
     15924       808  TIP3      H2            -26.8459097140      -10.3933385781       30.0575372475  TIP3      708             0.0000000000
     15925       809  TIP3      OH2           -27.3054514030        4.6313842533       26.0836945141  TIP3      709             0.0000000000
     15926       809  TIP3      H1            -28.2764036471        4.6278830363       26.1400434916  TIP3      709             0.0000000000
     15927       809  TIP3      H2            -27.2094911759        4.6917602879       25.1207104536  TIP3      709             0.0000000000
     15928       810  TIP3      OH2           -27.9537513617        6.9586554830       37.2161853408  TIP3      710             0.0000000000
     15929       810  TIP3      H1            -27.6717109906        7.1372896204       38.1337930394  TIP3      710             0.0000000000
     15930       810  TIP3      H2            -27.7405718410        6.0112885372       37.1421225636  TIP3      710             0.0000000000
     15931       811  TIP3      OH2           -23.7150475646        6.2743698303       38.8593634028  TIP3      711             0.0000000000
     15932       811  TIP3      H1            -22.9839889447        5.9502561690       39.4113905012  TIP3      711             0.0000000000
     15933       811  TIP3      H2            -23.7633415397        5.5841822907       38.1783689690  TIP3      711             0.0000000000
     15934       812  TIP3      OH2           -17.4504304393        4.6758240203       37.4167728776  TIP3      712             0.0000000000
     15935       812  TIP3      H1            -17.6725753029        3.7938501271       37.7997009951  TIP3      712             0.0000000000
     15936       812  TIP3      H2            -16.5504099056        4.7913925537       37.7876828968  TIP3      712             0.0000000000
     15937       813  TIP3      OH2           -28.4360167215        0.8082489136       37.8952533066  TIP3      713             0.0000000000
     15938       813  TIP3      H1            -28.2413864331       -0.1370611574       38.0071464080  TIP3      713             0.0000000000
     15939       813  TIP3      H2            -29.4200975895        0.7620297546       37.8999465733  TIP3      713             0.0000000000
     15940       814  TIP3      OH2           -21.9646465216        0.9386100383       36.8315231431  TIP3      714             0.0000000000
     15941       814  TIP3      H1            -22.2663216274        1.6211057879       36.1882459824  TIP3      714             0.0000000000
     15942       814  TIP3      H2            -22.1156342223        0.0820277064       36.3668885042  TIP3      714             0.0000000000
     15943       815  TIP3      OH2           -16.0493178868        0.8903857322       35.1572131383  TIP3      715             0.0000000000
     15944       815  TIP3      H1            -15.2501393018        1.4545364040       35.0692226130  TIP3      715             0.0000000000
     15945       815  TIP3      H2            -16.7253647498        1.5953510616       35.1833995585  TIP3      715             0.0000000000
     15946       816  TIP3      OH2           -27.3889149330       -1.7173021850       37.5281950130  TIP3      716             0.0000000000
     15947       816  TIP3      H1            -27.3064592644       -2.6034849208       37.9506877035  TIP3      716             0.0000000000
     15948       816  TIP3      H2            -26.8487532051       -1.2133998203       38.1757240112  TIP3      716             0.0000000000
     15949       817  TIP3      OH2           -22.7081910916       -0.6632668242       22.9393555175  TIP3      717             0.0000000000
     15950       817  TIP3      H1            -23.5393921886       -0.9384473056       23.3338719013  TIP3      717             0.0000000000
     15951       817  TIP3      H2            -22.5688464284       -1.4229975804       22.3581357513  TIP3      717             0.0000000000
     15952       818  TIP3      OH2           -24.2379145735       -2.9089298649       34.0676015505  TIP3      718             0.0000000000
     15953       818  TIP3      H1            -24.7420565649       -2.1018585130       34.3247042220  TIP3      718             0.0000000000
     15954       818  TIP3      H2            -23.3856130661       -2.4771926601       33.8637042806  TIP3      718             0.0000000000
     15955       819  TIP3      OH2           -18.1416274639       -0.1933955070       38.4889013290  TIP3      719             0.0000000000
     15956       819  TIP3      H1            -17.6264910438       -0.4756115604       37.7165735320  TIP3      719             0.0000000000
     15957       819  TIP3      H2            -18.4970672570       -1.0328345514       38.8291040731  TIP3      719             0.0000000000
     15958       820  TIP3      OH2           -22.6956339702       -4.8868707605       35.5434317523  TIP3      720             0.0000000000
     15959       820  TIP3      H1            -22.7436390634       -5.6909027555       34.9906936507  TIP3      720             0.0000000000
     15960       820  TIP3      H2            -22.6878340132       -4.1851519382       34.8743072215  TIP3      720             0.0000000000
     15961       821  TIP3      OH2           -22.6052804241       -7.1338208003       33.6235401812  TIP3      721             0.0000000000
     15962       821  TIP3      H1            -22.0354959575       -6.6475633223       32.9638467658  TIP3      721             0.0000000000
     15963       821  TIP3      H2            -23.4748832076       -7.1181220666       33.1823608043  TIP3      721             0.0000000000
     15964       822  TIP3      OH2           -21.4864018380       -1.2395869214       33.7243262064  TIP3      722             0.0000000000
     15965       822  TIP3      H1            -20.6815340061       -0.9006330754       33.2985191643  TIP3      722             0.0000000000
     15966       822  TIP3      H2            -22.1526564960       -0.6292598307       33.3399971895  TIP3      722             0.0000000000
     15967       823  TIP3      OH2           -17.3258095841       -3.5725640040       38.6846371512  TIP3      723             0.0000000000
     15968       823  TIP3      H1            -17.2475183075       -4.5041034554       38.9693921089  TIP3      723             0.0000000000
     15969       823  TIP3      H2            -16.3997805411       -3.3165202919       38.6409429406  TIP3      723             0.0000000000
     15970       824  TIP3      OH2           -14.9601539183       -0.7719710503       37.1095555959  TIP3      724             0.0000000000
     15971       824  TIP3      H1            -15.4109442777       -0.3700873349       36.3395470559  TIP3      724             0.0000000000
     15972       824  TIP3      H2            -14.0396299119       -0.8690543622       36.7563594204  TIP3      724             0.0000000000
     15973       825  TIP3      OH2           -24.4907550166       -4.3255513148       37.9037667554  TIP3      725             0.0000000000
     15974       825  TIP3      H1            -25.2560272124       -4.8672910780       37.6039302104  TIP3      725             0.0000000000
     15975       825  TIP3      H2            -23.9864136380       -4.2351761881       37.0789097965  TIP3      725             0.0000000000
     15976       826  TIP3      OH2           -21.6516991814       -9.5616622942       33.5064211701  TIP3      726             0.0000000000
     15977       826  TIP3      H1            -22.0158246797       -8.6543381618       33.5846289792  TIP3      726             0.0000000000
     15978       826  TIP3      H2            -22.4240638911      -10.0251174984       33.1633585698  TIP3      726             0.0000000000
     15979       827  TIP3      OH2           -20.7784574637       -5.5377647993       37.7711944787  TIP3      727             0.0000000000
     15980       827  TIP3      H1            -21.3218568865       -5.9348701749       38.4880842574  TIP3      727             0.0000000000
     15981       827  TIP3      H2            -21.4213495810       -5.5934015277       37.0442055735  TIP3      727             0.0000000000
     15982       828  TIP3      OH2           -18.0425251973       -5.9117961151       36.6867987457  TIP3      728             0.0000000000
     15983       828  TIP3      H1            -18.9727553870       -5.9705346228       36.9773790305  TIP3      728             0.0000000000
     15984       828  TIP3      H2            -17.6748131514       -6.5633341915       37.3168860296  TIP3      728             0.0000000000
     15985       829  TIP3      OH2           -17.0229823158       -7.7490482075       38.3937322324  TIP3      729             0.0000000000
     15986       829  TIP3      H1            -16.9043647860       -8.7161393506       38.5048370475  TIP3      729             0.0000000000
     15987       829  TIP3      H2            -16.9393101823       -7.3930811837       39.2989064808  TIP3      729             0.0000000000
     15988       830  TIP3      OH2           -26.4365888159       -6.2190686838       37.4501332617  TIP3      730             0.0000000000
     15989       830  TIP3      H1            -26.2935041662       -7.0960733745       37.0662650180  TIP3      730             0.0000000000
     15990       830  TIP3      H2            -26.4239044502       -6.4006539331       38.4127442726  TIP3      730             0.0000000000
     15991       831  TIP3      OH2           -22.1089925476      -10.2275499289       36.3912385234  TIP3      731             0.0000000000
     15992       831  TIP3      H1            -21.4772178064      -10.9579827881       36.5440935482  TIP3      731             0.0000000000
     15993       831  TIP3      H2            -21.9630392393      -10.0380375139       35.4475345386  TIP3      731             0.0000000000
     15994       832  TIP3      OH2           -22.1651707770       -9.1346777970       38.9632212868  TIP3      732             0.0000000000
     15995       832  TIP3      H1            -22.0791953069       -9.4365995602       38.0356379548  TIP3      732             0.0000000000
     15996       832  TIP3      H2            -22.7878606211       -8.3937779590       38.9089982438  TIP3      732             0.0000000000
     15997       833  TIP3      OH2            29.1321858092        7.7809291523       25.6216388249  TIP3      733             0.0000000000
     15998       833  TIP3      H1             28.2378147388        7.9716868050       25.9762689339  TIP3      733             0.0000000000
     15999       833  TIP3      H2             29.6754011974        7.6900055644       26.4295151416  TIP3      733             0.0000000000
     16000       834  TIP3      OH2           -28.4956008727        6.7860486038       27.7429132322  TIP3      734             0.0000000000
     16001       834  TIP3      H1            -29.2324015485        6.1554905080       27.8056189299  TIP3      734             0.0000000000
     16002       834  TIP3      H2            -27.9876345028        6.5970087212       28.5490687422  TIP3      734             0.0000000000
     16003       835  TIP3      OH2           -11.4072058209        7.0011073205       30.9524759763  TIP3      735             0.0000000000
     16004       835  TIP3      H1            -11.0507384985        7.2968605030       31.8140770788  TIP3      735             0.0000000000
     16005       835  TIP3      H2            -10.8239688709        7.4712430002       30.3446181900  TIP3      735             0.0000000000
     16006       836  TIP3      OH2           -11.8153868144        6.5680477829       33.8879199654  TIP3      736             0.0000000000
     16007       836  TIP3      H1            -12.1743806708        5.8348085696       33.3428998469  TIP3      736             0.0000000000
     16008       836  TIP3      H2            -11.5097602603        6.0696972185       34.6611618232  TIP3      736             0.0000000000
     16009       837  TIP3      OH2           -12.8067040701        2.3781976621       38.7704385567  TIP3      737             0.0000000000
     16010       837  TIP3      H1            -13.6990753910        2.4582717988       39.1629870272  TIP3      737             0.0000000000
     16011       837  TIP3      H2            -12.4058869697        3.2400855357       38.9982964178  TIP3      737             0.0000000000
     16012       838  TIP3      OH2           -12.1199504928        0.5190535283       23.7171851149  TIP3      738             0.0000000000
     16013       838  TIP3      H1            -11.2255314498        0.7498895651       24.0177557584  TIP3      738             0.0000000000
     16014       838  TIP3      H2            -12.3886893112       -0.0958161311       24.4180236873  TIP3      738             0.0000000000
     16015       839  TIP3      OH2           -11.2082059692       -1.1151441306       26.3266323067  TIP3      739             0.0000000000
     16016       839  TIP3      H1            -11.9954899672       -1.5628303882       26.7053017271  TIP3      739             0.0000000000
     16017       839  TIP3      H2            -10.6257427489       -0.9337049507       27.0977554710  TIP3      739             0.0000000000
     16018       840  TIP3      OH2           -11.9916232917        1.5162536093       30.7342374825  TIP3      740             0.0000000000
     16019       840  TIP3      H1            -11.2015354676        0.9319235041       30.6408059577  TIP3      740             0.0000000000
     16020       840  TIP3      H2            -11.6992870857        2.3116284042       30.2587598111  TIP3      740             0.0000000000
     16021       841  TIP3      OH2           -13.2838870008        4.3548285513       33.0354622343  TIP3      741             0.0000000000
     16022       841  TIP3      H1            -13.8837762329        4.7815705685       33.6752755145  TIP3      741             0.0000000000
     16023       841  TIP3      H2            -13.8845409290        4.0730098234       32.3097933154  TIP3      741             0.0000000000
     16024       842  TIP3      OH2           -13.5092983759       -2.6177239014       26.8706836210  TIP3      742             0.0000000000
     16025       842  TIP3      H1            -13.8063547148       -3.4737195165       26.4969964089  TIP3      742             0.0000000000
     16026       842  TIP3      H2            -13.7438460686       -2.7471080779       27.8094551547  TIP3      742             0.0000000000
     16027       843  TIP3      OH2           -28.5871862044       -0.8474849725       31.0466910363  TIP3      743             0.0000000000
     16028       843  TIP3      H1            -28.4979292662       -0.8521840007       30.0707440743  TIP3      743             0.0000000000
     16029       843  TIP3      H2            -27.6628679986       -1.0058304138       31.3235394605  TIP3      743             0.0000000000
     16030       844  TIP3      OH2           -12.5100701844       -0.8320806804       36.2383537132  TIP3      744             0.0000000000
     16031       844  TIP3      H1            -11.9698393495       -1.6480910939       36.1163656395  TIP3      744             0.0000000000
     16032       844  TIP3      H2            -11.8737038219       -0.1338044670       35.9627046801  TIP3      744             0.0000000000
     16033       845  TIP3      OH2           -11.3951174650       -3.2130478965       36.2051295625  TIP3      745             0.0000000000
     16034       845  TIP3      H1            -12.3206005535       -3.5088630373       36.1944002207  TIP3      745             0.0000000000
     16035       845  TIP3      H2            -10.9116072432       -4.0387373294       36.4626197963  TIP3      745             0.0000000000
     16036       846  TIP3      OH2           -13.8197608459       -5.0687987416       25.6570208598  TIP3      746             0.0000000000
     16037       846  TIP3      H1            -13.4836247419       -5.9789962187       25.7793261638  TIP3      746             0.0000000000
     16038       846  TIP3      H2            -13.2528969144       -4.7740235437       24.9403494458  TIP3      746             0.0000000000
     16039       847  TIP3      OH2           -13.1650738513       -4.3727482126       30.6901181488  TIP3      747             0.0000000000
     16040       847  TIP3      H1            -12.1826644210       -4.3332460552       30.7803515861  TIP3      747             0.0000000000
     16041       847  TIP3      H2            -13.4146759804       -4.2926469161       31.6288240849  TIP3      747             0.0000000000
     16042       848  TIP3      OH2           -13.1658658537       -3.7524680584       33.3455296671  TIP3      748             0.0000000000
     16043       848  TIP3      H1            -13.9544983865       -3.4127942214       33.8078323696  TIP3      748             0.0000000000
     16044       848  TIP3      H2            -12.7391723389       -2.9215794160       33.0169699138  TIP3      748             0.0000000000
     16045       849  TIP3      OH2           -28.9658843979       -5.5089826988       36.6914118015  TIP3      749             0.0000000000
     16046       849  TIP3      H1            -28.0348820410       -5.4321193082       36.9991059296  TIP3      749             0.0000000000
     16047       849  TIP3      H2            -29.3939609358       -5.8654427735       37.4865982096  TIP3      749             0.0000000000
     16048       850  TIP3      OH2           -10.9918136813       -9.8209278513       38.3601462573  TIP3      750             0.0000000000
     16049       850  TIP3      H1            -10.6339493842      -10.4381125056       37.6988722855  TIP3      750             0.0000000000
     16050       850  TIP3      H2            -10.9687407756       -8.9886501161       37.8256335189  TIP3      750             0.0000000000
     16051       851  TIP3      OH2           -13.1591104536       -7.8108904181       25.2390998271  TIP3      751             0.0000000000
     16052       851  TIP3      H1            -12.8288318287       -8.0841857994       26.1194310030  TIP3      751             0.0000000000
     16053       851  TIP3      H2            -13.8808203092       -8.4452603671       25.0904646889  TIP3      751             0.0000000000
     16054       852  TIP3      OH2           -27.4735968684       -7.1232357051       29.9656392840  TIP3      752             0.0000000000
     16055       852  TIP3      H1            -26.9672888204       -7.9596919391       29.8467604886  TIP3      752             0.0000000000
     16056       852  TIP3      H2            -26.7705003016       -6.4741856284       30.2051941478  TIP3      752             0.0000000000
     16057       853  TIP3      OH2           -29.1725718168       -3.7167850551       31.0471813854  TIP3      753             0.0000000000
     16058       853  TIP3      H1            -28.4579204618       -4.3125010172       31.3270406419  TIP3      753             0.0000000000
     16059       853  TIP3      H2            -28.7175402039       -2.8627486397       31.2013212681  TIP3      753             0.0000000000
     16060       854  TIP3      OH2           -11.5184484521       -7.7740182491       36.8280116838  TIP3      754             0.0000000000
     16061       854  TIP3      H1            -12.3984833343       -7.3764773826       36.9706034489  TIP3      754             0.0000000000
     16062       854  TIP3      H2            -11.7036086238       -8.2735278336       36.0151055472  TIP3      754             0.0000000000
     16063       855  TIP3      OH2           -29.1942313586       -7.6956278909       24.7074030901  TIP3      755             0.0000000000
     16064       855  TIP3      H1            -29.9736808253       -8.2656550869       24.8516138117  TIP3      755             0.0000000000
     16065       855  TIP3      H2            -29.6480683880       -7.0092658803       24.2066253035  TIP3      755             0.0000000000
     16066       856  TIP3      OH2           -14.4340308662        7.3703313644       26.9387331287  TIP3      756             0.0000000000
     16067       856  TIP3      H1            -13.5918592681        7.2725716275       26.4670633914  TIP3      756             0.0000000000
     16068       856  TIP3      H2            -14.2034073999        7.9128701683       27.7159699762  TIP3      756             0.0000000000
     16069       857  TIP3      OH2            29.5784792544       -9.3899593310       33.0006959598  TIP3      757             0.0000000000
     16070       857  TIP3      H1             28.6469384869       -9.4620629234       33.3106353091  TIP3      757             0.0000000000
     16071       857  TIP3      H2             29.4754965732       -8.7823772215       32.2624050894  TIP3      757             0.0000000000
     16072       858  TIP3      OH2           -26.9884833621        4.1832824680       37.6382805707  TIP3      758             0.0000000000
     16073       858  TIP3      H1            -27.3141327297        3.3704390920       37.2138879253  TIP3      758             0.0000000000
     16074       858  TIP3      H2            -27.2026818412        4.0338375913       38.5781995573  TIP3      758             0.0000000000
     16075       859  TIP3      OH2           -24.3669839208        5.5822043488       33.8804914101  TIP3      759             0.0000000000
     16076       859  TIP3      H1            -24.3999547294        6.4282042581       33.3806183470  TIP3      759             0.0000000000
     16077       859  TIP3      H2            -23.4356443014        5.3247765200       33.7403501573  TIP3      759             0.0000000000
     16078       860  TIP3      OH2           -20.2159595113        6.6473198330       36.2371435720  TIP3      760             0.0000000000
     16079       860  TIP3      H1            -20.1834592313        6.3894780459       37.1724136896  TIP3      760             0.0000000000
     16080       860  TIP3      H2            -19.2975145241        6.9656420005       36.0854475939  TIP3      760             0.0000000000
     16081       861  TIP3      OH2           -17.8386055901        8.1021175218       35.8814264933  TIP3      761             0.0000000000
     16082       861  TIP3      H1            -17.0038460003        7.7319239585       35.5648914024  TIP3      761             0.0000000000
     16083       861  TIP3      H2            -17.5618802827        8.5829975745       36.6895106539  TIP3      761             0.0000000000
     16084       862  TIP3      OH2           -12.5514419011       -9.8651634687       34.8430075971  TIP3      762             0.0000000000
     16085       862  TIP3      H1            -13.3465771434       -9.5275422510       34.4063023714  TIP3      762             0.0000000000
     16086       862  TIP3      H2            -12.4921504196      -10.7709130191       34.4536938735  TIP3      762             0.0000000000
     16087       863  TIP3      OH2           -27.1668842314        8.3839100500       33.3542615094  TIP3      763             0.0000000000
     16088       863  TIP3      H1            -28.0299458385        8.7944938879       33.1067980023  TIP3      763             0.0000000000
     16089       863  TIP3      H2            -26.9935176099        8.8116140077       34.2103665960  TIP3      763             0.0000000000
     16090       864  TIP3      OH2           -24.5804982748        7.9088360255       32.4664400500  TIP3      764             0.0000000000
     16091       864  TIP3      H1            -25.5514766107        8.0459154678       32.5845201873  TIP3      764             0.0000000000
     16092       864  TIP3      H2            -24.3917190889        8.4669476812       31.6823204979  TIP3      764             0.0000000000
     16093       865  TIP3      OH2           -19.9177158484        7.6308763354       31.7774989767  TIP3      765             0.0000000000
     16094       865  TIP3      H1            -20.7341110709        8.1436228597       31.6300986733  TIP3      765             0.0000000000
     16095       865  TIP3      H2            -19.4812996173        8.2448721603       32.3966779135  TIP3      765             0.0000000000
     16096       866  TIP3      OH2           -17.7000648295        6.2906885434       33.1213399005  TIP3      766             0.0000000000
     16097       866  TIP3      H1            -18.2704719399        6.7402794109       32.4715358969  TIP3      766             0.0000000000
     16098       866  TIP3      H2            -16.8707043849        6.7761203012       32.9744634489  TIP3      766             0.0000000000
     16099       867  TIP3      OH2           -14.9991592644        7.7631110444       32.9004343363  TIP3      767             0.0000000000
     16100       867  TIP3      H1            -14.8076587596        8.6077082075       32.4553652543  TIP3      767             0.0000000000
     16101       867  TIP3      H2            -14.6865920345        7.1193081354       32.2259547186  TIP3      767             0.0000000000
     16102       868  TIP3      OH2           -27.2586768661        6.9452923349       30.3999139784  TIP3      768             0.0000000000
     16103       868  TIP3      H1            -27.2821623162        6.2534809480       31.1041800818  TIP3      768             0.0000000000
     16104       868  TIP3      H2            -26.4777066651        6.6076774443       29.8865114209  TIP3      768             0.0000000000
     16105       869  TIP3      OH2           -25.2320899386        5.8357205686       29.2445632513  TIP3      769             0.0000000000
     16106       869  TIP3      H1            -25.2482307300        4.8629193970       29.3442015020  TIP3      769             0.0000000000
     16107       869  TIP3      H2            -24.4080873700        6.0234301005       29.7559845839  TIP3      769             0.0000000000
     16108       870  TIP3      OH2           -23.0869930340        5.9449010977       30.8118406617  TIP3      770             0.0000000000
     16109       870  TIP3      H1            -22.6225263730        5.0925975013       30.7820825505  TIP3      770             0.0000000000
     16110       870  TIP3      H2            -22.7261560587        6.3481979577       31.6295865649  TIP3      770             0.0000000000
     16111       871  TIP3      OH2           -18.7267293577       -8.3343508272       29.0381910691  TIP3      771             0.0000000000
     16112       871  TIP3      H1            -19.5901449875       -8.2103132293       29.4410319970  TIP3      771             0.0000000000
     16113       871  TIP3      H2            -18.9793696977       -8.5610492712       28.1227785244  TIP3      771             0.0000000000
     16114       872  TIP3      OH2           -14.0808531179      -10.0714488701       29.0470021980  TIP3      772             0.0000000000
     16115       872  TIP3      H1            -13.4724380773       -9.4611399614       28.5684378328  TIP3      772             0.0000000000
     16116       872  TIP3      H2            -14.9520042238       -9.8853807098       28.6201482566  TIP3      772             0.0000000000
     16117       873  TIP3      OH2           -12.1841634333       -9.0732839528       27.3880663800  TIP3      773             0.0000000000
     16118       873  TIP3      H1            -11.6243912920       -9.7354351429       26.9167527946  TIP3      773             0.0000000000
     16119       873  TIP3      H2            -11.5139166652       -8.4098250370       27.6872157225  TIP3      773             0.0000000000
     16120       874  TIP3      OH2           -26.5993919737       -9.7570513323       26.9886261837  TIP3      774             0.0000000000
     16121       874  TIP3      H1            -27.4131642516      -10.1532992841       26.6368493282  TIP3      774             0.0000000000
     16122       874  TIP3      H2            -26.0059526600      -10.5424481911       26.8961790124  TIP3      774             0.0000000000
     16123       875  TIP3      OH2           -28.1553476983       -9.3048246952       22.3812137005  TIP3      775             0.0000000000
     16124       875  TIP3      H1            -27.4620858927       -8.9431184563       22.9541967822  TIP3      775             0.0000000000
     16125       875  TIP3      H2            -28.6951305735       -9.7604858019       23.0399575584  TIP3      775             0.0000000000
     16126       876  TIP3      OH2           -22.4101731446       -9.9968394115       27.1693280430  TIP3      776             0.0000000000
     16127       876  TIP3      H1            -21.4927979598       -9.7280945384       27.0204724421  TIP3      776             0.0000000000
     16128       876  TIP3      H2            -22.6215054785       -9.5588828403       28.0081654378  TIP3      776             0.0000000000
     16129       877  TIP3      OH2           -16.4748898011       -9.8454760807       28.0034957265  TIP3      777             0.0000000000
     16130       877  TIP3      H1            -16.9833586397       -9.7220346535       27.1993064749  TIP3      777             0.0000000000
     16131       877  TIP3      H2            -17.0962008116      -10.3832641170       28.5505317331  TIP3      777             0.0000000000
     16132       878  TIP3      OH2           -15.2495356675       -9.5961838637       24.3709402325  TIP3      778             0.0000000000
     16133       878  TIP3      H1            -15.9379521953       -8.9442426660       24.1363553649  TIP3      778             0.0000000000
     16134       878  TIP3      H2            -15.8331107423      -10.3538762253       24.6075940045  TIP3      778             0.0000000000
     16135       879  TIP3      OH2           -27.4331868859        6.4874032831       23.6646196026  TIP3      779             0.0000000000
     16136       879  TIP3      H1            -28.3679029609        6.5826644031       23.9094007837  TIP3      779             0.0000000000
     16137       879  TIP3      H2            -27.2893900687        7.2843586244       23.1324350868  TIP3      779             0.0000000000
     16138       880  TIP3      OH2           -12.7502093663        6.6202905682       24.9716407250  TIP3      780             0.0000000000
     16139       880  TIP3      H1            -12.9521531665        5.9241871605       24.3087836718  TIP3      780             0.0000000000
     16140       880  TIP3      H2            -12.6621227228        7.3890971711       24.3608722179  TIP3      780             0.0000000000
     16141       881  TIP3      OH2           -26.9006471251       -9.1273305323       36.2522319318  TIP3      781             0.0000000000
     16142       881  TIP3      H1            -27.3870664294       -9.9239917280       36.5231460984  TIP3      781             0.0000000000
     16143       881  TIP3      H2            -26.1151229490       -9.2128246943       36.8335886633  TIP3      781             0.0000000000
     16144       882  TIP3      OH2           -25.0859625427       -9.6091655219       38.3644970916  TIP3      782             0.0000000000
     16145       882  TIP3      H1            -24.2137482651       -9.9952387494       38.1640349697  TIP3      782             0.0000000000
     16146       882  TIP3      H2            -25.5639958097      -10.3887071458       38.7079908051  TIP3      782             0.0000000000
     16147       883  TIP3      OH2           -16.5191330408      -10.4098410492       38.5693913186  TIP3      783             0.0000000000
     16148       883  TIP3      H1            -16.4377511993      -10.8097049214       39.4594146097  TIP3      783             0.0000000000
     16149       883  TIP3      H2            -15.5947258231      -10.4416943497       38.2613781697  TIP3      783             0.0000000000
     16150       884  TIP3      OH2           -13.1558670633        5.8757343274       36.8250765734  TIP3      784             0.0000000000
     16151       884  TIP3      H1            -13.7300124627        5.8879119469       36.0245744281  TIP3      784             0.0000000000
     16152       884  TIP3      H2            -13.3953854215        6.7557820430       37.1764426971  TIP3      784             0.0000000000
     16153       885  TIP3      OH2             1.6246053006       -0.2219218435       26.7134737357  TIP3      785             0.0000000000
     16154       885  TIP3      H1              1.5915247375        0.7171723171       26.9715645433  TIP3      785             0.0000000000
     16155       885  TIP3      H2              0.8871716662       -0.2564723915       26.0844211276  TIP3      785             0.0000000000
     16156       886  TIP3      OH2            -0.0370663939       -1.5043135262       30.1043196799  TIP3      786             0.0000000000
     16157       886  TIP3      H1             -0.0507449718       -1.8217758265       31.0231715543  TIP3      786             0.0000000000
     16158       886  TIP3      H2             -0.6981664450       -2.0590000894       29.6633194841  TIP3      786             0.0000000000
     16159       887  TIP3      OH2            -7.9529734404       -1.8928258513       31.4746802472  TIP3      787             0.0000000000
     16160       887  TIP3      H1             -7.7401079317       -2.6743535288       32.0276945563  TIP3      787             0.0000000000
     16161       887  TIP3      H2             -7.3056652502       -1.2616691775       31.8787166350  TIP3      787             0.0000000000
     16162       888  TIP3      OH2             3.2286636331        1.8813166797       28.8642663609  TIP3      788             0.0000000000
     16163       888  TIP3      H1              3.1555708088        1.1202986020       29.4630895021  TIP3      788             0.0000000000
     16164       888  TIP3      H2              3.2842746172        2.6061753892       29.5069794797  TIP3      788             0.0000000000
     16165       889  TIP3      OH2            -6.6452768159        3.6037249234       30.5134541910  TIP3      789             0.0000000000
     16166       889  TIP3      H1             -7.3557100072        3.0129994981       30.2186554978  TIP3      789             0.0000000000
     16167       889  TIP3      H2             -5.8590339211        3.0776224100       30.2804293139  TIP3      789             0.0000000000
     16168       890  TIP3      OH2            -9.9464687151       -3.6724334812       26.0551540484  TIP3      790             0.0000000000
     16169       890  TIP3      H1            -10.2880194490       -2.7595637846       26.1606837956  TIP3      790             0.0000000000
     16170       890  TIP3      H2            -10.5440815215       -4.0534971187       25.3817147511  TIP3      790             0.0000000000
     16171       891  TIP3      OH2            -9.3353260322       -1.2051291017       28.2977052663  TIP3      791             0.0000000000
     16172       891  TIP3      H1             -9.0052909472       -2.1093240414       28.5146096641  TIP3      791             0.0000000000
     16173       891  TIP3      H2             -8.5340904291       -0.6552741869       28.3721610604  TIP3      791             0.0000000000
     16174       892  TIP3      OH2             0.7722821107        7.1853620027       28.6171610148  TIP3      792             0.0000000000
     16175       892  TIP3      H1              1.3997520487        6.6404292189       28.0862617350  TIP3      792             0.0000000000
     16176       892  TIP3      H2              0.5904305715        6.5002622118       29.2825933214  TIP3      792             0.0000000000
     16177       893  TIP3      OH2            -1.4781063387        2.2490752262       30.7008655487  TIP3      793             0.0000000000
     16178       893  TIP3      H1             -1.4580087226        1.3221027664       30.4008156554  TIP3      793             0.0000000000
     16179       893  TIP3      H2             -0.5337095759        2.5097546871       30.6157333295  TIP3      793             0.0000000000
     16180       894  TIP3      OH2             7.0656188604       -7.0825416417       30.6884886157  TIP3      794             0.0000000000
     16181       894  TIP3      H1              7.1655837767       -6.8308917918       31.6324634269  TIP3      794             0.0000000000
     16182       894  TIP3      H2              8.0080572675       -7.1263544166       30.4139709645  TIP3      794             0.0000000000
     16183       895  TIP3      OH2             1.6809452318       -4.0372034279       31.6096418450  TIP3      795             0.0000000000
     16184       895  TIP3      H1              1.2156165494       -4.8344135552       31.9182241981  TIP3      795             0.0000000000
     16185       895  TIP3      H2              1.2994755095       -3.9305021904       30.7240259733  TIP3      795             0.0000000000
     16186       896  TIP3      OH2            -5.1206126221       -6.6930192416       27.9574619213  TIP3      796             0.0000000000
     16187       896  TIP3      H1             -5.1309623208       -5.8232704534       27.4976205466  TIP3      796             0.0000000000
     16188       896  TIP3      H2             -5.6622087206       -7.2103651847       27.3397602338  TIP3      796             0.0000000000
     16189       897  TIP3      OH2             2.4605969395       -5.8313573344       27.1743853709  TIP3      797             0.0000000000
     16190       897  TIP3      H1              3.0018608163       -6.6427226365       27.2599880666  TIP3      797             0.0000000000
     16191       897  TIP3      H2              2.8766841024       -5.4317660517       26.3894234745  TIP3      797             0.0000000000
     16192       898  TIP3      OH2            -8.7372638993       -3.7680386970       29.0197262377  TIP3      798             0.0000000000
     16193       898  TIP3      H1             -8.0351002029       -4.2232220380       29.5155686416  TIP3      798             0.0000000000
     16194       898  TIP3      H2             -8.5986998845       -4.1232056077       28.1268716222  TIP3      798             0.0000000000
     16195       899  TIP3      OH2            -3.5586044706       -2.8236757992       28.2656524527  TIP3      799             0.0000000000
     16196       899  TIP3      H1             -2.8045352126       -3.4087037288       28.4263571473  TIP3      799             0.0000000000
     16197       899  TIP3      H2             -4.1498779374       -3.3920071495       27.7246462866  TIP3      799             0.0000000000
     16198       900  TIP3      OH2             6.9800123428       -6.1684069871       33.2499937196  TIP3      800             0.0000000000
     16199       900  TIP3      H1              6.4832234217       -5.3200332052       33.2011632179  TIP3      800             0.0000000000
     16200       900  TIP3      H2              7.5337907375       -5.9988052266       34.0345657462  TIP3      800             0.0000000000
     16201       901  TIP3      OH2            -6.0703407070       -7.3316230240       32.1077273303  TIP3      801             0.0000000000
     16202       901  TIP3      H1             -6.5046183241       -6.7117979030       31.4801283117  TIP3      801             0.0000000000
     16203       901  TIP3      H2             -6.4739504991       -7.0375727969       32.9477361075  TIP3      801             0.0000000000
     16204       902  TIP3      OH2             0.7290033299        2.4245324749       25.7069623880  TIP3      802             0.0000000000
     16205       902  TIP3      H1              0.5270837450        2.4241182653       24.7450988487  TIP3      802             0.0000000000
     16206       902  TIP3      H2              0.6565124726        3.3877934747       25.8835676262  TIP3      802             0.0000000000
     16207       903  TIP3      OH2            -3.1632431569        0.4672815633       32.6959139223  TIP3      803             0.0000000000
     16208       903  TIP3      H1             -4.0334972602        0.2894257867       33.1367851161  TIP3      803             0.0000000000
     16209       903  TIP3      H2             -3.5077815641        0.6315594241       31.8073926911  TIP3      803             0.0000000000
     16210       904  TIP3      OH2             4.4083869837       -7.6228469165       27.7871793125  TIP3      804             0.0000000000
     16211       904  TIP3      H1              3.8694222609       -8.4362176538       27.6777457962  TIP3      804             0.0000000000
     16212       904  TIP3      H2              5.3070819878       -7.9546912130       27.5348550953  TIP3      804             0.0000000000
     16213       905  TIP3      OH2            -6.7703744709       -5.4661671733       30.2041664875  TIP3      805             0.0000000000
     16214       905  TIP3      H1             -6.1941112765       -4.8276423827       30.6922690776  TIP3      805             0.0000000000
     16215       905  TIP3      H2             -6.1995752730       -5.7299086210       29.4577071853  TIP3      805             0.0000000000
     16216       906  TIP3      OH2            -4.9413318364        2.8915363781       33.0003888455  TIP3      806             0.0000000000
     16217       906  TIP3      H1             -5.5099485058        3.6316200712       32.7200099643  TIP3      806             0.0000000000
     16218       906  TIP3      H2             -5.5920849970        2.1540560875       33.0305216872  TIP3      806             0.0000000000
     16219       907  TIP3      OH2            -9.3335720211        1.8295615672       24.0343534800  TIP3      807             0.0000000000
     16220       907  TIP3      H1             -9.5625170730        2.3320585370       23.2254065864  TIP3      807             0.0000000000
     16221       907  TIP3      H2             -9.5355783180        2.4551027452       24.7503260750  TIP3      807             0.0000000000
     16222       908  TIP3      OH2             4.3630482969        3.5511709286       31.0785669544  TIP3      808             0.0000000000
     16223       908  TIP3      H1              3.4316933095        3.8341076242       31.2395435891  TIP3      808             0.0000000000
     16224       908  TIP3      H2              4.6412346796        4.2990474342       30.5141839853  TIP3      808             0.0000000000
     16225       909  TIP3      OH2             4.2463779112       -7.9793922146       31.7219137447  TIP3      809             0.0000000000
     16226       909  TIP3      H1              3.6663168712       -7.4473102987       32.2684609651  TIP3      809             0.0000000000
     16227       909  TIP3      H2              5.0740553341       -7.4774555386       31.6136849076  TIP3      809             0.0000000000
     16228       910  TIP3      OH2            -2.9567914524      -10.1688855067       29.9320355827  TIP3      810             0.0000000000
     16229       910  TIP3      H1             -3.4204536588      -11.0273875511       29.9237414228  TIP3      810             0.0000000000
     16230       910  TIP3      H2             -3.7648840600       -9.5931402688       29.9982323456  TIP3      810             0.0000000000
     16231       911  TIP3      OH2             2.6724739311        5.4917119358       27.6104957806  TIP3      811             0.0000000000
     16232       911  TIP3      H1              2.8461911312        4.8335635626       26.9121904704  TIP3      811             0.0000000000
     16233       911  TIP3      H2              3.3420996212        6.1704655899       27.3756388911  TIP3      811             0.0000000000
     16234       912  TIP3      OH2             3.6265886583        3.2732035887       25.7787230118  TIP3      812             0.0000000000
     16235       912  TIP3      H1              3.4735438026        2.6123784814       25.0819317408  TIP3      812             0.0000000000
     16236       912  TIP3      H2              3.4356328227        2.7567365280       26.5761243080  TIP3      812             0.0000000000
     16237       913  TIP3      OH2             5.3661996192        1.5483227988       34.4666744629  TIP3      813             0.0000000000
     16238       913  TIP3      H1              5.2513066446        1.0808049272       33.6115251065  TIP3      813             0.0000000000
     16239       913  TIP3      H2              5.3866874849        2.4729867106       34.1591534330  TIP3      813             0.0000000000
     16240       914  TIP3      OH2            -0.1933108368       -1.0482951230       24.1231267397  TIP3      814             0.0000000000
     16241       914  TIP3      H1             -0.7056624158       -0.2086647911       24.0820218570  TIP3      814             0.0000000000
     16242       914  TIP3      H2             -0.5448245916       -1.5275975068       23.3377238114  TIP3      814             0.0000000000
     16243       915  TIP3      OH2            -0.6923659411       -2.6352366332       21.8007275791  TIP3      815             0.0000000000
     16244       915  TIP3      H1              0.2365861882       -2.8409092416       21.9567034259  TIP3      815             0.0000000000
     16245       915  TIP3      H2             -0.9508501024       -3.2824929822       21.1219472913  TIP3      815             0.0000000000
     16246       916  TIP3      OH2             6.6695730742       -2.1106833303       31.8653973591  TIP3      816             0.0000000000
     16247       916  TIP3      H1              6.3460590979       -1.5861958103       31.1192867034  TIP3      816             0.0000000000
     16248       916  TIP3      H2              7.2774008762       -2.7501130013       31.4158798528  TIP3      816             0.0000000000
     16249       917  TIP3      OH2             3.6203977593       -1.4039845635       25.3400189709  TIP3      817             0.0000000000
     16250       917  TIP3      H1              2.9365322898       -0.9509411187       25.8946449890  TIP3      817             0.0000000000
     16251       917  TIP3      H2              4.4004494008       -1.3660136036       25.9197826807  TIP3      817             0.0000000000
     16252       918  TIP3      OH2             3.1369900052       -2.9929067863       34.5418686866  TIP3      818             0.0000000000
     16253       918  TIP3      H1              3.0714843948       -2.0854431492       34.8823502374  TIP3      818             0.0000000000
     16254       918  TIP3      H2              2.6079027093       -2.9000545554       33.7281265231  TIP3      818             0.0000000000
     16255       919  TIP3      OH2            -5.2317460329       -0.7481774042       27.1968865358  TIP3      819             0.0000000000
     16256       919  TIP3      H1             -5.5341134121       -1.0257620524       26.2979695447  TIP3      819             0.0000000000
     16257       919  TIP3      H2             -4.6118337677       -1.4680023283       27.4293957309  TIP3      819             0.0000000000
     16258       920  TIP3      OH2            -3.8202270946        2.9539877360       29.7273179760  TIP3      820             0.0000000000
     16259       920  TIP3      H1             -3.7969436081        2.5354936208       28.8506290166  TIP3      820             0.0000000000
     16260       920  TIP3      H2             -2.9381042594        2.7079321997       30.0784595716  TIP3      820             0.0000000000
     16261       921  TIP3      OH2            -4.9380373777       -2.3748394211       30.4988598055  TIP3      821             0.0000000000
     16262       921  TIP3      H1             -4.3949473894       -2.2536550406       29.6828293608  TIP3      821             0.0000000000
     16263       921  TIP3      H2             -4.8564421779       -1.5357032893       30.9755693585  TIP3      821             0.0000000000
     16264       922  TIP3      OH2             1.7575513193        4.1863517126       31.5686948592  TIP3      822             0.0000000000
     16265       922  TIP3      H1              1.5373627658        4.6702327497       32.3793254242  TIP3      822             0.0000000000
     16266       922  TIP3      H2              1.5574617401        3.2648829077       31.8512931562  TIP3      822             0.0000000000
     16267       923  TIP3      OH2            -3.9707638878        2.8879439704       35.5879117621  TIP3      823             0.0000000000
     16268       923  TIP3      H1             -4.4339489767        3.5699306358       36.1315309005  TIP3      823             0.0000000000
     16269       923  TIP3      H2             -4.6299651611        2.8356985661       34.8680042494  TIP3      823             0.0000000000
     16270       924  TIP3      OH2            -6.9115745972       -2.3530121565       35.2591326264  TIP3      824             0.0000000000
     16271       924  TIP3      H1             -6.5638813468       -1.6653512411       35.8467492697  TIP3      824             0.0000000000
     16272       924  TIP3      H2             -6.9534782553       -1.8004764523       34.4447819706  TIP3      824             0.0000000000
     16273       925  TIP3      OH2             0.1829135019        5.1434276507       25.8533163590  TIP3      825             0.0000000000
     16274       925  TIP3      H1             -0.2874631568        5.3153676764       26.6794671709  TIP3      825             0.0000000000
     16275       925  TIP3      H2             -0.2400585377        5.7747026310       25.2412546638  TIP3      825             0.0000000000
     16276       926  TIP3      OH2            -5.5898580169        4.6632598013       36.4908610382  TIP3      826             0.0000000000
     16277       926  TIP3      H1             -5.6911157118        5.0029428529       35.5723833163  TIP3      826             0.0000000000
     16278       926  TIP3      H2             -6.5286632428        4.4219683692       36.6777114994  TIP3      826             0.0000000000
     16279       927  TIP3      OH2             6.2963917945      -10.0608893355       23.3950589057  TIP3      827             0.0000000000
     16280       927  TIP3      H1              5.3769801938       -9.9702019451       23.7180794301  TIP3      827             0.0000000000
     16281       927  TIP3      H2              6.3738295322       -9.2014319915       22.9584070440  TIP3      827             0.0000000000
     16282       928  TIP3      OH2            -6.0367423307       -1.4468892219       24.6492435356  TIP3      828             0.0000000000
     16283       928  TIP3      H1             -6.6417198372       -0.8811929985       24.1305784004  TIP3      828             0.0000000000
     16284       928  TIP3      H2             -6.3462739178       -2.3385397319       24.4323837015  TIP3      828             0.0000000000
     16285       929  TIP3      OH2             7.7714459227        4.5217792720       21.7589141045  TIP3      829             0.0000000000
     16286       929  TIP3      H1              7.5803017187        5.1280136833       21.0219684012  TIP3      829             0.0000000000
     16287       929  TIP3      H2              8.5925589176        4.0860533197       21.4264684366  TIP3      829             0.0000000000
     16288       930  TIP3      OH2            -9.8845846727        1.3030789815       33.6354266963  TIP3      830             0.0000000000
     16289       930  TIP3      H1            -10.0283840418        1.0922216796       32.7062044921  TIP3      830             0.0000000000
     16290       930  TIP3      H2             -9.7619330647        0.3737662891       33.9495754095  TIP3      830             0.0000000000
     16291       931  TIP3      OH2           -10.1985626884        3.6960545268       30.4496144185  TIP3      831             0.0000000000
     16292       931  TIP3      H1             -9.8208530263        3.2763695035       31.2383124842  TIP3      831             0.0000000000
     16293       931  TIP3      H2            -10.3804628968        4.5910759467       30.7706427130  TIP3      831             0.0000000000
     16294       932  TIP3      OH2             7.8007040181        4.4010580203       35.8408075173  TIP3      832             0.0000000000
     16295       932  TIP3      H1              7.8452895421        3.4509557624       36.0101204594  TIP3      832             0.0000000000
     16296       932  TIP3      H2              6.9427004852        4.6102173011       36.2780237627  TIP3      832             0.0000000000
     16297       933  TIP3      OH2            -1.1301692389        4.1773267214       35.2808796572  TIP3      833             0.0000000000
     16298       933  TIP3      H1             -0.9126729755        5.0029591948       35.7625464682  TIP3      833             0.0000000000
     16299       933  TIP3      H2             -1.7340759106        3.7687196344       35.9194014048  TIP3      833             0.0000000000
     16300       934  TIP3      OH2            -0.5855585726        7.6152736214       24.7464900509  TIP3      834             0.0000000000
     16301       934  TIP3      H1             -0.5686034347        7.6026997143       23.7673726204  TIP3      834             0.0000000000
     16302       934  TIP3      H2             -0.6358039909        8.5797656775       24.9301462890  TIP3      834             0.0000000000
     16303       935  TIP3      OH2            -7.0353382185        6.6275460062       26.8015292237  TIP3      835             0.0000000000
     16304       935  TIP3      H1             -6.7356533804        6.1754127016       27.6257226513  TIP3      835             0.0000000000
     16305       935  TIP3      H2             -7.8187813508        6.1146496027       26.5500979991  TIP3      835             0.0000000000
     16306       936  TIP3      OH2             2.0530292905        7.1290234687       24.3222468349  TIP3      836             0.0000000000
     16307       936  TIP3      H1              1.1441223651        7.1793710073       24.6842433337  TIP3      836             0.0000000000
     16308       936  TIP3      H2              2.3615354005        6.2880603838       24.6874922530  TIP3      836             0.0000000000
     16309       937  TIP3      OH2             4.9746647163       -4.1328942333       36.3162526700  TIP3      837             0.0000000000
     16310       937  TIP3      H1              4.3519977863       -3.4758048716       35.9530496087  TIP3      837             0.0000000000
     16311       937  TIP3      H2              4.5405936613       -4.9660044645       36.0561994410  TIP3      837             0.0000000000
     16312       938  TIP3      OH2            -7.7127835969        2.6679776800       34.5812461616  TIP3      838             0.0000000000
     16313       938  TIP3      H1             -7.4211437439        1.9725268495       35.1917863682  TIP3      838             0.0000000000
     16314       938  TIP3      H2             -8.4804664782        2.2320502586       34.1566570928  TIP3      838             0.0000000000
     16315       939  TIP3      OH2            -5.2311576533       -9.0540427072       30.3030910574  TIP3      839             0.0000000000
     16316       939  TIP3      H1             -6.1633872725       -9.3287639638       30.1576146414  TIP3      839             0.0000000000
     16317       939  TIP3      H2             -5.3885503235       -8.2095222462       30.7814802124  TIP3      839             0.0000000000
     16318       940  TIP3      OH2            -0.3487211196       -9.4360616258       33.7710825478  TIP3      840             0.0000000000
     16319       940  TIP3      H1              0.0733229581       -9.8520919703       34.5622876592  TIP3      840             0.0000000000
     16320       940  TIP3      H2             -1.3036936642       -9.5853628164       33.9538445749  TIP3      840             0.0000000000
     16321       941  TIP3      OH2             2.3501956393       -5.6332729655       34.8195852473  TIP3      841             0.0000000000
     16322       941  TIP3      H1              1.7394223207       -5.8832918290       35.5571048873  TIP3      841             0.0000000000
     16323       941  TIP3      H2              2.3976343067       -4.6549085203       34.9066990760  TIP3      841             0.0000000000
     16324       942  TIP3      OH2            -0.4938815628       -6.2119685372       21.1689549568  TIP3      842             0.0000000000
     16325       942  TIP3      H1             -0.9497110800       -6.7999643600       21.7848105631  TIP3      842             0.0000000000
     16326       942  TIP3      H2             -1.1039851621       -6.1851306231       20.4123435845  TIP3      842             0.0000000000
     16327       943  TIP3      OH2            -4.8473818657       -4.5986236085       31.9087403193  TIP3      843             0.0000000000
     16328       943  TIP3      H1             -5.5718243831       -4.3443702949       32.5194199205  TIP3      843             0.0000000000
     16329       943  TIP3      H2             -4.6863290226       -3.7178765483       31.5008242287  TIP3      843             0.0000000000
     16330       944  TIP3      OH2            -5.3386547972       -4.3489769125       26.6522759964  TIP3      844             0.0000000000
     16331       944  TIP3      H1             -6.1932216735       -4.6455133009       26.2613685519  TIP3      844             0.0000000000
     16332       944  TIP3      H2             -4.7394111532       -4.3419094689       25.8609340040  TIP3      844             0.0000000000
     16333       945  TIP3      OH2             0.4835202168       -3.1974548067       25.9185275622  TIP3      845             0.0000000000
     16334       945  TIP3      H1              0.1323681173       -2.3363519953       25.6120998561  TIP3      845             0.0000000000
     16335       945  TIP3      H2              1.1426931032       -3.3493040733       25.2045871150  TIP3      845             0.0000000000
     16336       946  TIP3      OH2            -0.9008487938       -3.1686491623       37.0726662940  TIP3      846             0.0000000000
     16337       946  TIP3      H1             -1.2993634083       -4.0373715091       37.3138704696  TIP3      846             0.0000000000
     16338       946  TIP3      H2             -0.0491720955       -3.2250022445       37.5614905001  TIP3      846             0.0000000000
     16339       947  TIP3      OH2             2.3643451377       -3.4986658870       28.5095469421  TIP3      847             0.0000000000
     16340       947  TIP3      H1              1.8493351166       -2.8110163320       28.0270248779  TIP3      847             0.0000000000
     16341       947  TIP3      H2              2.0260524245       -4.2900667828       28.0309707801  TIP3      847             0.0000000000
     16342       948  TIP3      OH2            -7.3144062264       -4.1368401688       33.0347634128  TIP3      848             0.0000000000
     16343       948  TIP3      H1             -7.0160735498       -3.7579838609       33.8838760466  TIP3      848             0.0000000000
     16344       948  TIP3      H2             -7.7088452998       -4.9695798198       33.3584804041  TIP3      848             0.0000000000
     16345       949  TIP3      OH2           -10.4035483003       -7.0804107612       27.6616850774  TIP3      849             0.0000000000
     16346       949  TIP3      H1             -9.5668875792       -7.1041614704       28.1428436977  TIP3      849             0.0000000000
     16347       949  TIP3      H2            -10.1432155891       -6.8012103422       26.7615005288  TIP3      849             0.0000000000
     16348       950  TIP3      OH2             0.3100193464       -2.1235930790       32.8098347797  TIP3      850             0.0000000000
     16349       950  TIP3      H1              1.0496843235       -2.6043847121       32.3859880058  TIP3      850             0.0000000000
     16350       950  TIP3      H2             -0.0101444023       -2.7924749727       33.4584451506  TIP3      850             0.0000000000
     16351       951  TIP3      OH2            -2.0233887491       -6.7057211221       27.7193930885  TIP3      851             0.0000000000
     16352       951  TIP3      H1             -2.9885598276       -6.8520464926       27.7555217450  TIP3      851             0.0000000000
     16353       951  TIP3      H2             -1.6925219579       -7.3199158569       28.4122807876  TIP3      851             0.0000000000
     16354       952  TIP3      OH2            -7.8655406792       -5.4962576029       26.2881214302  TIP3      852             0.0000000000
     16355       952  TIP3      H1             -8.6842869330       -4.9769966525       26.1644912676  TIP3      852             0.0000000000
     16356       952  TIP3      H2             -7.9180122813       -6.1533465555       25.5642603478  TIP3      852             0.0000000000
     16357       953  TIP3      OH2            -3.9231759896       -4.2824316469       24.3133500901  TIP3      853             0.0000000000
     16358       953  TIP3      H1             -2.9722197840       -4.4774575605       24.4431081134  TIP3      853             0.0000000000
     16359       953  TIP3      H2             -3.9261189810       -3.6819930405       23.5510057530  TIP3      853             0.0000000000
     16360       954  TIP3      OH2             1.4419484189       -7.1874253474       30.6088542960  TIP3      854             0.0000000000
     16361       954  TIP3      H1              1.1846689030       -7.3009629902       31.5603639003  TIP3      854             0.0000000000
     16362       954  TIP3      H2              0.7973153723       -7.7842446417       30.2005141523  TIP3      854             0.0000000000
     16363       955  TIP3      OH2             4.9591241059        8.5431123006       37.6029714714  TIP3      855             0.0000000000
     16364       955  TIP3      H1              5.4274797003        8.8560108888       36.8010004712  TIP3      855             0.0000000000
     16365       955  TIP3      H2              5.6601802939        8.7203239810       38.2542401469  TIP3      855             0.0000000000
     16366       956  TIP3      OH2            -7.1778895898        0.4253911465       36.9673254555  TIP3      856             0.0000000000
     16367       956  TIP3      H1             -6.4661124747        0.9909580402       37.3186656805  TIP3      856             0.0000000000
     16368       956  TIP3      H2             -7.9800044067        0.8391852286       37.3613510270  TIP3      856             0.0000000000
     16369       957  TIP3      OH2            -1.0574186600       -4.4297652390       29.5816993837  TIP3      857             0.0000000000
     16370       957  TIP3      H1             -0.8954682939       -5.2246866537       29.0601726303  TIP3      857             0.0000000000
     16371       957  TIP3      H2             -1.6358056239       -4.8194588156       30.2758709196  TIP3      857             0.0000000000
     16372       958  TIP3      OH2            -6.5258170602       -8.0517066689       25.6534426852  TIP3      858             0.0000000000
     16373       958  TIP3      H1             -7.1029862299       -8.5707595524       26.2542551786  TIP3      858             0.0000000000
     16374       958  TIP3      H2             -5.8080085469       -8.6871206865       25.4906459773  TIP3      858             0.0000000000
     16375       959  TIP3      OH2            -2.3044373241       -5.5284713042       31.6902695261  TIP3      859             0.0000000000
     16376       959  TIP3      H1             -3.2111883054       -5.1510670837       31.7220841906  TIP3      859             0.0000000000
     16377       959  TIP3      H2             -1.8019044599       -4.9828635234       32.3079076459  TIP3      859             0.0000000000
     16378       960  TIP3      OH2            -1.8718322962        1.1078837101       24.1799288352  TIP3      860             0.0000000000
     16379       960  TIP3      H1             -2.5897240779        0.6990368611       23.6436610203  TIP3      860             0.0000000000
     16380       960  TIP3      H2             -2.3747207105        1.2843006433       25.0099147685  TIP3      860             0.0000000000
     16381       961  TIP3      OH2             5.3769347169        0.4475846373       32.0322115712  TIP3      861             0.0000000000
     16382       961  TIP3      H1              5.6969136191        1.0263861293       31.3019417429  TIP3      861             0.0000000000
     16383       961  TIP3      H2              4.5147594291        0.1693842004       31.6587795059  TIP3      861             0.0000000000
     16384       962  TIP3      OH2             2.0273761580       -6.1382332696       22.1666392040  TIP3      862             0.0000000000
     16385       962  TIP3      H1              1.2857939272       -6.6179811460       21.7313318359  TIP3      862             0.0000000000
     16386       962  TIP3      H2              1.8281763298       -5.2321479998       21.8915818197  TIP3      862             0.0000000000
     16387       963  TIP3      OH2            -0.6208555006        1.5385688066       34.8043254815  TIP3      863             0.0000000000
     16388       963  TIP3      H1             -0.9368060388        0.7427048228       35.2591929922  TIP3      863             0.0000000000
     16389       963  TIP3      H2             -0.3877390393        2.1171545863       35.5427360852  TIP3      863             0.0000000000
     16390       964  TIP3      OH2             2.2909113850       -3.5062255964       23.9542640307  TIP3      864             0.0000000000
     16391       964  TIP3      H1              2.9616926802       -4.1953740781       24.1645507051  TIP3      864             0.0000000000
     16392       964  TIP3      H2              2.8424695346       -2.7105487165       24.1047369853  TIP3      864             0.0000000000
     16393       965  TIP3      OH2            -7.0334134273        0.4603807117       29.3085167930  TIP3      865             0.0000000000
     16394       965  TIP3      H1             -6.4263410438        0.2542464539       28.5743139981  TIP3      865             0.0000000000
     16395       965  TIP3      H2             -6.7160356751       -0.0941734856       30.0366444597  TIP3      865             0.0000000000
     16396       966  TIP3      OH2            -0.0214822906        2.6436638761       23.0683951324  TIP3      866             0.0000000000
     16397       966  TIP3      H1             -0.4529298213        3.5266752989       23.1401943694  TIP3      866             0.0000000000
     16398       966  TIP3      H2             -0.7657600943        2.0466879724       23.3006203875  TIP3      866             0.0000000000
     16399       967  TIP3      OH2            -9.9095068721       -1.1740677923       34.6139646651  TIP3      867             0.0000000000
     16400       967  TIP3      H1             -9.4811146472       -1.7852221570       35.2363018212  TIP3      867             0.0000000000
     16401       967  TIP3      H2            -10.2599334384       -1.7696873059       33.9292802121  TIP3      867             0.0000000000
     16402       968  TIP3      OH2            -3.3449347704       -1.6561874023       36.5028503688  TIP3      868             0.0000000000
     16403       968  TIP3      H1             -3.3682698609       -2.4483951273       35.9442735637  TIP3      868             0.0000000000
     16404       968  TIP3      H2             -2.5534914562       -1.8241259336       37.0389287896  TIP3      868             0.0000000000
     16405       969  TIP3      OH2             2.0464307366        3.5263172229       35.1032326155  TIP3      869             0.0000000000
     16406       969  TIP3      H1              1.1362546636        3.8346030396       34.9741360109  TIP3      869             0.0000000000
     16407       969  TIP3      H2              2.2604410718        3.9020033481       35.9778536936  TIP3      869             0.0000000000
     16408       970  TIP3      OH2             7.2728710518       -4.1557080444       23.7962837917  TIP3      870             0.0000000000
     16409       970  TIP3      H1              6.9020667437       -4.4953642338       22.9696663637  TIP3      870             0.0000000000
     16410       970  TIP3      H2              7.3808807747       -3.2087228118       23.5370416432  TIP3      870             0.0000000000
     16411       971  TIP3      OH2             7.5476828936        1.2922019158       35.9736138999  TIP3      871             0.0000000000
     16412       971  TIP3      H1              6.7246749225        1.5018038029       35.4659792476  TIP3      871             0.0000000000
     16413       971  TIP3      H2              8.2368045230        1.3424008767       35.2737442199  TIP3      871             0.0000000000
     16414       972  TIP3      OH2             5.7811236447        3.9865370476       23.8217469898  TIP3      872             0.0000000000
     16415       972  TIP3      H1              5.1627525839        3.2525596371       23.9738715306  TIP3      872             0.0000000000
     16416       972  TIP3      H2              5.8770593638        3.9919117115       22.8561428001  TIP3      872             0.0000000000
     16417       973  TIP3      OH2             3.1547388347       -0.2805336349       30.5902031820  TIP3      873             0.0000000000
     16418       973  TIP3      H1              2.2318717009       -0.4617202596       30.3275924130  TIP3      873             0.0000000000
     16419       973  TIP3      H2              3.6570663151       -0.9814270444       30.1115368225  TIP3      873             0.0000000000
     16420       974  TIP3      OH2            -4.5205156448        3.7286093108       27.0706537474  TIP3      874             0.0000000000
     16421       974  TIP3      H1             -3.8970541154        4.4664408252       27.0153130271  TIP3      874             0.0000000000
     16422       974  TIP3      H2             -5.3134032664        4.1015737961       26.6834701771  TIP3      874             0.0000000000
     16423       975  TIP3      OH2            -8.7348645462       -1.9094484263       22.0762629576  TIP3      875             0.0000000000
     16424       975  TIP3      H1             -8.0014661911       -1.3019097034       21.8901355180  TIP3      875             0.0000000000
     16425       975  TIP3      H2             -9.4961648694       -1.3645355072       21.8671099316  TIP3      875             0.0000000000
     16426       976  TIP3      OH2            -3.6478138915        1.3766411467       26.2644074228  TIP3      876             0.0000000000
     16427       976  TIP3      H1             -3.9128448379        2.2708936417       26.5666888325  TIP3      876             0.0000000000
     16428       976  TIP3      H2             -4.3539944633        0.7874436624       26.5956581546  TIP3      876             0.0000000000
     16429       977  TIP3      OH2            -2.6396518291        5.5960560318       33.2888507907  TIP3      877             0.0000000000
     16430       977  TIP3      H1             -2.1457265748        6.2829168090       32.8036814221  TIP3      877             0.0000000000
     16431       977  TIP3      H2             -2.1233996208        5.5714733993       34.1169051785  TIP3      877             0.0000000000
     16432       978  TIP3      OH2            -4.4892419228        6.4563609797       25.8223317980  TIP3      878             0.0000000000
     16433       978  TIP3      H1             -5.4330451394        6.5768119650       26.0546470533  TIP3      878             0.0000000000
     16434       978  TIP3      H2             -4.1684167054        7.3427882507       26.0728532981  TIP3      878             0.0000000000
     16435       979  TIP3      OH2             0.9301863547        1.8077687272       32.3174902286  TIP3      879             0.0000000000
     16436       979  TIP3      H1              0.4760835762        1.3655165558       33.0575528139  TIP3      879             0.0000000000
     16437       979  TIP3      H2              1.8068537268        1.3801798952       32.3541560845  TIP3      879             0.0000000000
     16438       980  TIP3      OH2             3.8135345112        5.8417993686       34.8829316187  TIP3      880             0.0000000000
     16439       980  TIP3      H1              2.9282499532        5.4332812045       34.8785605577  TIP3      880             0.0000000000
     16440       980  TIP3      H2              3.7179701995        6.4524557049       34.1197499334  TIP3      880             0.0000000000
     16441       981  TIP3      OH2             7.4662863488        7.2710947986       21.2879109788  TIP3      881             0.0000000000
     16442       981  TIP3      H1              7.4759047581        8.1865500930       20.9925507005  TIP3      881             0.0000000000
     16443       981  TIP3      H2              6.6434900930        7.2556775832       21.8011901065  TIP3      881             0.0000000000
     16444       982  TIP3      OH2            -7.5906976959       -6.5050099589       34.4623944136  TIP3      882             0.0000000000
     16445       982  TIP3      H1             -8.2231287698       -6.2372734776       35.1516156724  TIP3      882             0.0000000000
     16446       982  TIP3      H2             -7.6545373475       -7.4690405666       34.5605754304  TIP3      882             0.0000000000
     16447       983  TIP3      OH2             3.9835893676        0.8615051136       23.9511605443  TIP3      883             0.0000000000
     16448       983  TIP3      H1              3.7337616372       -0.0493777264       24.2008754049  TIP3      883             0.0000000000
     16449       983  TIP3      H2              4.9566474370        0.8244452385       24.0331762151  TIP3      883             0.0000000000
     16450       984  TIP3      OH2            -8.5722725819        5.3311631707       32.5112880738  TIP3      884             0.0000000000
     16451       984  TIP3      H1             -7.9124511828        4.6266638692       32.5761651628  TIP3      884             0.0000000000
     16452       984  TIP3      H2             -8.4591130931        5.7817744568       33.3592678291  TIP3      884             0.0000000000
     16453       985  TIP3      OH2            -7.3086398270        0.4488148204       22.8975673559  TIP3      885             0.0000000000
     16454       985  TIP3      H1             -8.1133410094        0.7954102960       23.3404379584  TIP3      885             0.0000000000
     16455       985  TIP3      H2             -6.7921850247        1.2552635216       22.8616008936  TIP3      885             0.0000000000
     16456       986  TIP3      OH2             0.8066460539       -7.0469836054       33.1418052090  TIP3      886             0.0000000000
     16457       986  TIP3      H1              1.4145652673       -6.6979766883       33.8199490128  TIP3      886             0.0000000000
     16458       986  TIP3      H2              0.3334781499       -7.7686963127       33.6214106113  TIP3      886             0.0000000000
     16459       987  TIP3      OH2             1.4015527930       -6.8473670399       24.7004782705  TIP3      887             0.0000000000
     16460       987  TIP3      H1              1.8003775720       -6.4570156229       23.8930680271  TIP3      887             0.0000000000
     16461       987  TIP3      H2              1.0721494623       -6.0568359906       25.1501548584  TIP3      887             0.0000000000
     16462       988  TIP3      OH2            -1.2777928188        4.9650438853       23.0156084655  TIP3      888             0.0000000000
     16463       988  TIP3      H1             -2.2213613457        5.1680550705       23.1887462496  TIP3      888             0.0000000000
     16464       988  TIP3      H2             -0.9293436367        5.8193406459       22.6996360851  TIP3      888             0.0000000000
     16465       989  TIP3      OH2            -1.4591756101       -5.1855528015       25.3327747482  TIP3      889             0.0000000000
     16466       989  TIP3      H1             -0.8065032082       -4.4703037592       25.4823520447  TIP3      889             0.0000000000
     16467       989  TIP3      H2             -1.5301791563       -5.5685587518       26.2302823085  TIP3      889             0.0000000000
     16468       990  TIP3      OH2            -0.4919318674       -4.3329802938       34.4264878885  TIP3      890             0.0000000000
     16469       990  TIP3      H1             -0.6711448492       -3.9694941980       35.3206146878  TIP3      890             0.0000000000
     16470       990  TIP3      H2             -0.0624179953       -5.1906285778       34.5906297944  TIP3      890             0.0000000000
     16471       991  TIP3      OH2            -0.5423254069       -8.4560113703       25.8500308090  TIP3      891             0.0000000000
     16472       991  TIP3      H1             -0.9942803172       -7.8714121133       26.4915613000  TIP3      891             0.0000000000
     16473       991  TIP3      H2              0.2053694186       -7.8873823278       25.5584762610  TIP3      891             0.0000000000
     16474       992  TIP3      OH2            -3.8595925221        5.7523898262       23.3772310146  TIP3      892             0.0000000000
     16475       992  TIP3      H1             -3.6888805884        6.6187899777       22.9351566717  TIP3      892             0.0000000000
     16476       992  TIP3      H2             -4.2004863838        6.0701638154       24.2435638940  TIP3      892             0.0000000000
     16477       993  TIP3      OH2             4.9375781280       -6.8239245508       35.3437182836  TIP3      893             0.0000000000
     16478       993  TIP3      H1              3.9911058302       -6.9444693318       35.1705509265  TIP3      893             0.0000000000
     16479       993  TIP3      H2              5.2416553760       -6.3206429551       34.5744475736  TIP3      893             0.0000000000
     16480       994  TIP3      OH2             4.5003671867       -2.1740433157       29.3529876734  TIP3      894             0.0000000000
     16481       994  TIP3      H1              3.6401347495       -2.6314881031       29.1970857711  TIP3      894             0.0000000000
     16482       994  TIP3      H2              5.0197584141       -2.9225578100       29.6965514732  TIP3      894             0.0000000000
     16483       995  TIP3      OH2             4.7048644368        6.2327921738       30.8880632343  TIP3      895             0.0000000000
     16484       995  TIP3      H1              4.7324363981        6.8162818117       30.1102426776  TIP3      895             0.0000000000
     16485       995  TIP3      H2              5.6586128772        6.1869679508       31.0851065156  TIP3      895             0.0000000000
     16486       996  TIP3      OH2            -7.8711522133       -9.5158217372       29.9092314595  TIP3      896             0.0000000000
     16487       996  TIP3      H1             -7.8885705738       -9.5370546404       28.9281097219  TIP3      896             0.0000000000
     16488       996  TIP3      H2             -8.1527446601      -10.4306147572       30.1131572163  TIP3      896             0.0000000000
     16489       997  TIP3      OH2            -9.0345212949        4.4772298468       26.1241886619  TIP3      897             0.0000000000
     16490       997  TIP3      H1             -9.6393628882        5.0002725375       26.6782654441  TIP3      897             0.0000000000
     16491       997  TIP3      H2             -9.0394879159        4.9778933475       25.2804020832  TIP3      897             0.0000000000
     16492       998  TIP3      OH2            -9.5791328135        7.1673671742       36.7057612762  TIP3      898             0.0000000000
     16493       998  TIP3      H1             -8.9526973661        7.0107945279       37.4299388385  TIP3      898             0.0000000000
     16494       998  TIP3      H2             -9.9261218585        6.2705168339       36.5197929982  TIP3      898             0.0000000000
     16495       999  TIP3      OH2            -4.7685611751        5.6822025849       38.8706546987  TIP3      899             0.0000000000
     16496       999  TIP3      H1             -3.8059155036        5.6849148512       38.9436481758  TIP3      899             0.0000000000
     16497       999  TIP3      H2             -4.9235586714        5.0734277206       38.1235258878  TIP3      899             0.0000000000
     16498      1000  TIP3      OH2             1.5127856108        4.7240748861       37.5762997933  TIP3      900             0.0000000000
     16499      1000  TIP3      H1              1.2545411684        3.8633933204       38.0010603565  TIP3      900             0.0000000000
     16500      1000  TIP3      H2              2.4037719923        4.8498831505       37.9640284349  TIP3      900             0.0000000000
     16501      1001  TIP3      OH2            -9.6644182572        0.7529246784       37.8172541124  TIP3      901             0.0000000000
     16502      1001  TIP3      H1             -9.8249974887       -0.1660610490       37.5400484910  TIP3      901             0.0000000000
     16503      1001  TIP3      H2            -10.1147499456        1.2330566997       37.0883902273  TIP3      901             0.0000000000
     16504      1002  TIP3      OH2            -2.9201630566        0.8557995735       36.8753648577  TIP3      902             0.0000000000
     16505      1002  TIP3      H1             -3.3536820645        1.4251799832       36.1901582200  TIP3      902             0.0000000000
     16506      1002  TIP3      H2             -3.1686095789       -0.0622073243       36.5777039501  TIP3      902             0.0000000000
     16507      1003  TIP3      OH2             2.7448831056        0.9375742439       34.8245886322  TIP3      903             0.0000000000
     16508      1003  TIP3      H1              3.6872434721        1.1813046681       34.9023959030  TIP3      903             0.0000000000
     16509      1003  TIP3      H2              2.3581241192        1.8230723275       35.0079847203  TIP3      903             0.0000000000
     16510      1004  TIP3      OH2            -8.6974120981       -2.0136569619       37.4247876453  TIP3      904             0.0000000000
     16511      1004  TIP3      H1             -8.0366742749       -2.4444548428       36.8551962220  TIP3      904             0.0000000000
     16512      1004  TIP3      H2             -8.1964404837       -1.2504218887       37.7853326860  TIP3      904             0.0000000000
     16513      1005  TIP3      OH2            -3.8665700233       -0.2455871624       22.9282325253  TIP3      905             0.0000000000
     16514      1005  TIP3      H1             -4.4601677737       -0.5583513445       23.6334356178  TIP3      905             0.0000000000
     16515      1005  TIP3      H2             -4.4634652752       -0.2573463322       22.1543029531  TIP3      905             0.0000000000
     16516      1006  TIP3      OH2            -4.4037905044       -3.0739663271       34.3515586428  TIP3      906             0.0000000000
     16517      1006  TIP3      H1             -5.0079084647       -2.3187022903       34.4334237969  TIP3      906             0.0000000000
     16518      1006  TIP3      H2             -3.6595122324       -2.6660936332       33.8551647230  TIP3      906             0.0000000000
     16519      1007  TIP3      OH2             0.7411334105       -0.3290403368       38.5140260107  TIP3      907             0.0000000000
     16520      1007  TIP3      H1              1.5764029001       -0.4844440580       38.0389189780  TIP3      907             0.0000000000
     16521      1007  TIP3      H2              0.0918394578       -0.8262256190       38.0038888932  TIP3      907             0.0000000000
     16522      1008  TIP3      OH2             6.0463549599       -0.0102966880       19.7656677001  TIP3      908             0.0000000000
     16523      1008  TIP3      H1              5.9911900151       -0.6981841217       19.0838596785  TIP3      908             0.0000000000
     16524      1008  TIP3      H2              6.8567008827        0.4368932235       19.5037360912  TIP3      908             0.0000000000
     16525      1009  TIP3      OH2            -3.9390363606       -5.2565343003       35.6701677484  TIP3      909             0.0000000000
     16526      1009  TIP3      H1             -3.9340249845       -5.9719742540       35.0030715370  TIP3      909             0.0000000000
     16527      1009  TIP3      H2             -4.0269247036       -4.4502998840       35.0898532260  TIP3      909             0.0000000000
     16528      1010  TIP3      OH2            -3.4797674830       -7.2477901624       33.5176690848  TIP3      910             0.0000000000
     16529      1010  TIP3      H1             -2.8111622046       -6.8598910503       32.9056612696  TIP3      910             0.0000000000
     16530      1010  TIP3      H2             -4.3044045938       -7.0513494061       33.0298329098  TIP3      910             0.0000000000
     16531      1011  TIP3      OH2            -2.2832290235       -1.9154562381       33.4435915862  TIP3      911             0.0000000000
     16532      1011  TIP3      H1             -1.4014042931       -2.0906284118       33.0803422588  TIP3      911             0.0000000000
     16533      1011  TIP3      H2             -2.4557090044       -0.9914636282       33.1494890741  TIP3      911             0.0000000000
     16534      1012  TIP3      OH2             1.3878139268       -3.7963402992       38.4679626214  TIP3      912             0.0000000000
     16535      1012  TIP3      H1              1.4178843972       -4.6820676596       38.8958970548  TIP3      912             0.0000000000
     16536      1012  TIP3      H2              2.3204954752       -3.5348935101       38.5612261878  TIP3      912             0.0000000000
     16537      1013  TIP3      OH2             3.5691040128       -0.8820245742       36.9807566074  TIP3      913             0.0000000000
     16538      1013  TIP3      H1              3.2775229061       -0.3828152625       36.1893418874  TIP3      913             0.0000000000
     16539      1013  TIP3      H2              4.5213119550       -1.0202611379       36.7817150921  TIP3      913             0.0000000000
     16540      1014  TIP3      OH2            -5.7220495127       -4.4348845843       37.8397990112  TIP3      914             0.0000000000
     16541      1014  TIP3      H1             -6.5581141783       -4.9057952160       37.6317262265  TIP3      914             0.0000000000
     16542      1014  TIP3      H2             -5.1619983428       -4.7790266321       37.1197596349  TIP3      914             0.0000000000
     16543      1015  TIP3      OH2            -2.9202137541       -9.9574694199       33.7988051143  TIP3      915             0.0000000000
     16544      1015  TIP3      H1             -3.1227460137       -8.9957833365       33.8054986703  TIP3      915             0.0000000000
     16545      1015  TIP3      H2             -3.7196926964      -10.3095430683       33.3810103929  TIP3      915             0.0000000000
     16546      1016  TIP3      OH2            -2.0432206318       -5.5764952466       37.6851019403  TIP3      916             0.0000000000
     16547      1016  TIP3      H1             -2.6020310802       -5.8817222987       38.4357344191  TIP3      916             0.0000000000
     16548      1016  TIP3      H2             -2.7102403757       -5.6167497402       36.9655786407  TIP3      916             0.0000000000
     16549      1017  TIP3      OH2             0.6055960647       -6.1624713433       36.8267948771  TIP3      917             0.0000000000
     16550      1017  TIP3      H1             -0.3218855855       -6.0905275390       37.1389177417  TIP3      917             0.0000000000
     16551      1017  TIP3      H2              0.9788934986       -6.7252542965       37.5493794359  TIP3      917             0.0000000000
     16552      1018  TIP3      OH2             2.0814122839       -7.7173879788       38.5602756379  TIP3      918             0.0000000000
     16553      1018  TIP3      H1              2.1730214133       -8.6857345592       38.6785033211  TIP3      918             0.0000000000
     16554      1018  TIP3      H2              2.0477133525       -7.3594104695       39.4675955855  TIP3      918             0.0000000000
     16555      1019  TIP3      OH2            -7.8563252046       -6.2176796444       37.4487723115  TIP3      919             0.0000000000
     16556      1019  TIP3      H1             -7.8145750559       -7.0930245431       37.0231214421  TIP3      919             0.0000000000
     16557      1019  TIP3      H2             -8.0072803514       -6.4469210884       38.3919796579  TIP3      919             0.0000000000
     16558      1020  TIP3      OH2            -3.1349267194       -9.9858797205       36.5916173180  TIP3      920             0.0000000000
     16559      1020  TIP3      H1             -2.4429106116      -10.6290272124       36.8305137599  TIP3      920             0.0000000000
     16560      1020  TIP3      H2             -3.1650701558      -10.1290012115       35.6262664112  TIP3      920             0.0000000000
     16561      1021  TIP3      OH2            -3.5222546018       -9.0594940608       39.2306788851  TIP3      921             0.0000000000
     16562      1021  TIP3      H1             -3.3017895069       -9.4329146590       38.3464737078  TIP3      921             0.0000000000
     16563      1021  TIP3      H2             -3.8801072398       -8.1887324068       38.9984581629  TIP3      921             0.0000000000
     16564      1022  TIP3      OH2            -3.1584272191        7.9120905972       21.9572152193  TIP3      922             0.0000000000
     16565      1022  TIP3      H1             -2.2236651714        7.7147883083       21.7651148746  TIP3      922             0.0000000000
     16566      1022  TIP3      H2             -3.5516293380        8.2098801349       21.1217840995  TIP3      922             0.0000000000
     16567      1023  TIP3      OH2            -9.2795884746        2.8161299646       21.5251820124  TIP3      923             0.0000000000
     16568      1023  TIP3      H1             -9.0571198156        3.6966489138       21.1808722469  TIP3      923             0.0000000000
     16569      1023  TIP3      H2             -9.5648949470        2.3325492037       20.7400679696  TIP3      923             0.0000000000
     16570      1024  TIP3      OH2           -10.8876230555        7.9469565903       26.4011465379  TIP3      924             0.0000000000
     16571      1024  TIP3      H1            -11.5127297617        7.3451328135       25.9351168796  TIP3      924             0.0000000000
     16572      1024  TIP3      H2            -10.4927827505        7.3371945898       27.0542603484  TIP3      924             0.0000000000
     16573      1025  TIP3      OH2            -9.9817448766        6.0900649139       28.2052224824  TIP3      925             0.0000000000
     16574      1025  TIP3      H1            -10.6138956919        5.7590182893       28.8689829005  TIP3      925             0.0000000000
     16575      1025  TIP3      H2             -9.2782531381        6.4021458874       28.8264897804  TIP3      925             0.0000000000
     16576      1026  TIP3      OH2             7.4376199530        6.8938808894       31.0247044117  TIP3      926             0.0000000000
     16577      1026  TIP3      H1              7.9235045256        6.8035366738       31.8584997178  TIP3      926             0.0000000000
     16578      1026  TIP3      H2              7.4606817259        7.8572320814       30.8912864850  TIP3      926             0.0000000000
     16579      1027  TIP3      OH2             7.1773741031        6.4285388798       34.0002837841  TIP3      927             0.0000000000
     16580      1027  TIP3      H1              6.5692691870        5.8657128664       33.4831065340  TIP3      927             0.0000000000
     16581      1027  TIP3      H2              7.4845624244        5.7352380736       34.6238299578  TIP3      927             0.0000000000
     16582      1028  TIP3      OH2             5.9949245369        2.4984567714       38.7729968846  TIP3      928             0.0000000000
     16583      1028  TIP3      H1              5.2011626819        2.4366244938       39.3519313761  TIP3      928             0.0000000000
     16584      1028  TIP3      H2              6.4239263139        3.3026528076       39.1451062169  TIP3      928             0.0000000000
     16585      1029  TIP3      OH2             6.8102130422        0.4969634138       24.2256699407  TIP3      929             0.0000000000
     16586      1029  TIP3      H1              7.5913671216        1.0890827988       24.1870402759  TIP3      929             0.0000000000
     16587      1029  TIP3      H2              7.0514612503       -0.0923897875       24.9837917289  TIP3      929             0.0000000000
     16588      1030  TIP3      OH2             7.4602263038       -1.3421680332       26.0100953382  TIP3      930             0.0000000000
     16589      1030  TIP3      H1              6.7242387593       -1.8030733817       26.4742880878  TIP3      930             0.0000000000
     16590      1030  TIP3      H2              8.1244934105       -1.2487305190       26.7284160909  TIP3      930             0.0000000000
     16591      1031  TIP3      OH2             7.0241697555        1.6366611500       30.3989638210  TIP3      931             0.0000000000
     16592      1031  TIP3      H1              7.4880041807        1.4610647156       29.5681228133  TIP3      931             0.0000000000
     16593      1031  TIP3      H2              7.4395631918        2.4937998328       30.6353832962  TIP3      931             0.0000000000
     16594      1032  TIP3      OH2             5.7198118852        4.2556168182       33.3258432106  TIP3      932             0.0000000000
     16595      1032  TIP3      H1              5.0640242932        4.7673910343       33.8361774252  TIP3      932             0.0000000000
     16596      1032  TIP3      H2              5.2418261357        4.0716764709       32.4792121042  TIP3      932             0.0000000000
     16597      1033  TIP3      OH2             6.9902492154       -1.6821435473       22.5313132530  TIP3      933             0.0000000000
     16598      1033  TIP3      H1              6.7087539559       -1.2756316057       21.6965903699  TIP3      933             0.0000000000
     16599      1033  TIP3      H2              6.7110252119       -0.9648043223       23.1285582022  TIP3      933             0.0000000000
     16600      1034  TIP3      OH2             5.2800932131       -2.8701856167       26.8867735152  TIP3      934             0.0000000000
     16601      1034  TIP3      H1              4.4184209960       -3.1534503808       26.5442937234  TIP3      934             0.0000000000
     16602      1034  TIP3      H2              5.0380550669       -2.5937001055       27.7971799234  TIP3      934             0.0000000000
     16603      1035  TIP3      OH2            -9.9464563371       -0.2665875578       30.8448781064  TIP3      935             0.0000000000
     16604      1035  TIP3      H1             -9.9560065726       -0.5632193316       29.9080567389  TIP3      935             0.0000000000
     16605      1035  TIP3      H2             -9.1079916821       -0.7341674185       31.0784132349  TIP3      935             0.0000000000
     16606      1036  TIP3      OH2             6.2773307279       -1.0570377442       36.3261959355  TIP3      936             0.0000000000
     16607      1036  TIP3      H1              6.9073695149       -1.6742228180       36.7626677321  TIP3      936             0.0000000000
     16608      1036  TIP3      H2              6.8230334420       -0.2477613932       36.2455778303  TIP3      936             0.0000000000
     16609      1037  TIP3      OH2             7.3670797390       -3.2513262037       37.4882067405  TIP3      937             0.0000000000
     16610      1037  TIP3      H1              6.5360797047       -3.4887212190       37.0181110652  TIP3      937             0.0000000000
     16611      1037  TIP3      H2              7.9439225542       -3.9790641836       37.1616871436  TIP3      937             0.0000000000
     16612      1038  TIP3      OH2             4.3047124167       -4.8927065709       25.0563139826  TIP3      938             0.0000000000
     16613      1038  TIP3      H1              4.7156205095       -5.7920159830       25.0674603496  TIP3      938             0.0000000000
     16614      1038  TIP3      H2              5.1168104136       -4.3501444295       25.0953323132  TIP3      938             0.0000000000
     16615      1039  TIP3      OH2             5.5115858258       -4.3886285299       30.6238881470  TIP3      939             0.0000000000
     16616      1039  TIP3      H1              6.4864588120       -4.5316447301       30.5786471254  TIP3      939             0.0000000000
     16617      1039  TIP3      H2              5.4287483726       -4.2201629434       31.5879781943  TIP3      939             0.0000000000
     16618      1040  TIP3      OH2             5.3857334741       -3.9863409195       33.2826988371  TIP3      940             0.0000000000
     16619      1040  TIP3      H1              4.6014607421       -3.7532235775       33.8201276162  TIP3      940             0.0000000000
     16620      1040  TIP3      H2              5.6567056428       -3.0839001184       32.9744516149  TIP3      940             0.0000000000
     16621      1041  TIP3      OH2           -10.3041483346       -5.4168145028       36.8538367574  TIP3      941             0.0000000000
     16622      1041  TIP3      H1             -9.3849513401       -5.5786798746       37.1476203569  TIP3      941             0.0000000000
     16623      1041  TIP3      H2            -10.6799211517       -6.3202956567       36.8587389133  TIP3      941             0.0000000000
     16624      1042  TIP3      OH2             7.7485907400       -9.6705551264       38.3805738438  TIP3      942             0.0000000000
     16625      1042  TIP3      H1              8.2599970474      -10.2547518629       37.7808795301  TIP3      942             0.0000000000
     16626      1042  TIP3      H2              7.6655831180       -8.8756273258       37.8059846778  TIP3      942             0.0000000000
     16627      1043  TIP3      OH2             5.3924280585       -7.3127269053       24.9312489230  TIP3      943             0.0000000000
     16628      1043  TIP3      H1              5.7347880091       -8.0149671606       25.4950683851  TIP3      943             0.0000000000
     16629      1043  TIP3      H2              4.7263849644       -7.8276008391       24.4269470602  TIP3      943             0.0000000000
     16630      1044  TIP3      OH2            -9.0660701955       -7.1584267607       30.5888975969  TIP3      944             0.0000000000
     16631      1044  TIP3      H1             -8.6942750304       -8.0593675031       30.4681267524  TIP3      944             0.0000000000
     16632      1044  TIP3      H2             -8.2990028344       -6.5676985308       30.5302231625  TIP3      944             0.0000000000
     16633      1045  TIP3      OH2           -10.5251388918       -4.0490034282       31.0048078167  TIP3      945             0.0000000000
     16634      1045  TIP3      H1            -10.0034399965       -4.3453280144       30.2261897998  TIP3      945             0.0000000000
     16635      1045  TIP3      H2            -10.0697675694       -3.2123111552       31.1638513900  TIP3      945             0.0000000000
     16636      1046  TIP3      OH2             7.2920917805       -7.6860466385       36.7215229978  TIP3      946             0.0000000000
     16637      1046  TIP3      H1              6.5000265982       -7.1864012304       36.9918187903  TIP3      946             0.0000000000
     16638      1046  TIP3      H2              6.8932309484       -8.1880888234       35.9840122044  TIP3      946             0.0000000000
     16639      1047  TIP3      OH2             7.7337722790       -7.9119739059       21.6030613327  TIP3      947             0.0000000000
     16640      1047  TIP3      H1              8.4909818810       -8.4517117444       21.3539602015  TIP3      947             0.0000000000
     16641      1047  TIP3      H2              8.1330329230       -7.0206400660       21.6940609414  TIP3      947             0.0000000000
     16642      1048  TIP3      OH2           -10.3343857135       -7.3053603031       24.7772402501  TIP3      948             0.0000000000
     16643      1048  TIP3      H1            -11.0988579221       -7.9044980210       24.8161099255  TIP3      948             0.0000000000
     16644      1048  TIP3      H2            -10.6603758903       -6.6223177229       24.1603698762  TIP3      948             0.0000000000
     16645      1049  TIP3      OH2             4.3117108216        7.3759698538       26.7098073158  TIP3      949             0.0000000000
     16646      1049  TIP3      H1              5.0199603358        6.8917533656       26.2516872636  TIP3      949             0.0000000000
     16647      1049  TIP3      H2              4.7665114019        7.8803093049       27.4145149204  TIP3      949             0.0000000000
     16648      1050  TIP3      OH2           -10.5156072853       -9.2171110365       33.0273484879  TIP3      950             0.0000000000
     16649      1050  TIP3      H1            -11.2555377171       -9.5587519226       33.5682849601  TIP3      950             0.0000000000
     16650      1050  TIP3      H2            -10.9489214004       -8.5955688139       32.4204075845  TIP3      950             0.0000000000
     16651      1051  TIP3      OH2            -8.1019563040        3.9524059831       37.1737643329  TIP3      951             0.0000000000
     16652      1051  TIP3      H1             -8.9100349609        4.0464604075       36.6443028960  TIP3      951             0.0000000000
     16653      1051  TIP3      H2             -8.3969039685        4.1507930183       38.0726497246  TIP3      951             0.0000000000
     16654      1052  TIP3      OH2            -5.3220962479        5.6219632042       33.9703857086  TIP3      952             0.0000000000
     16655      1052  TIP3      H1             -5.3386820188        6.4753210438       33.4684241978  TIP3      952             0.0000000000
     16656      1052  TIP3      H2             -4.4142016695        5.3441474504       33.7600077541  TIP3      952             0.0000000000
     16657      1053  TIP3      OH2            -1.1900849006        6.6228540614       36.3605847426  TIP3      953             0.0000000000
     16658      1053  TIP3      H1             -1.0112208608        6.3908316586       37.2932044255  TIP3      953             0.0000000000
     16659      1053  TIP3      H2             -0.3567759760        7.0986578285       36.1475421651  TIP3      953             0.0000000000
     16660      1054  TIP3      OH2             0.9360860673        8.2695823067       35.8730201507  TIP3      954             0.0000000000
     16661      1054  TIP3      H1              1.7414534367        8.0533226389       35.3746081483  TIP3      954             0.0000000000
     16662      1054  TIP3      H2              1.2739759230        8.7826163533       36.6300323912  TIP3      954             0.0000000000
     16663      1055  TIP3      OH2             6.4270294665       -9.7740448322       34.9126385100  TIP3      955             0.0000000000
     16664      1055  TIP3      H1              5.6601348627       -9.3073599761       34.5579664597  TIP3      955             0.0000000000
     16665      1055  TIP3      H2              6.4347673146      -10.6159588508       34.3985744098  TIP3      955             0.0000000000
     16666      1056  TIP3      OH2            -7.9077647703        8.5261642493       33.2870721258  TIP3      956             0.0000000000
     16667      1056  TIP3      H1             -8.6341113156        9.1880625097       33.3019891345  TIP3      956             0.0000000000
     16668      1056  TIP3      H2             -7.8812290920        8.2278379624       34.2026546356  TIP3      956             0.0000000000
     16669      1057  TIP3      OH2            -5.4047935708        7.8220254786       32.4507293059  TIP3      957             0.0000000000
     16670      1057  TIP3      H1             -6.3328349344        8.0947291881       32.6782352108  TIP3      957             0.0000000000
     16671      1057  TIP3      H2             -5.2786884862        8.3232724698       31.6315744760  TIP3      957             0.0000000000
     16672      1058  TIP3      OH2            -0.9985626545        7.5573055837       31.9035320918  TIP3      958             0.0000000000
     16673      1058  TIP3      H1             -1.4220898317        8.1294408327       31.2450127465  TIP3      958             0.0000000000
     16674      1058  TIP3      H2             -0.5652054054        8.2289798124       32.4780252796  TIP3      958             0.0000000000
     16675      1059  TIP3      OH2             1.2429015478        6.5352444626       33.3422760947  TIP3      959             0.0000000000
     16676      1059  TIP3      H1              0.6454591901        6.7598677717       32.6104836498  TIP3      959             0.0000000000
     16677      1059  TIP3      H2              1.9917448919        7.1302540988       33.1383670807  TIP3      959             0.0000000000
     16678      1060  TIP3      OH2             3.7600151485        7.7380508808       32.9138554507  TIP3      960             0.0000000000
     16679      1060  TIP3      H1              4.0025729473        8.6377119546       32.6224326387  TIP3      960             0.0000000000
     16680      1060  TIP3      H2              4.1213761361        7.2035747133       32.1726150168  TIP3      960             0.0000000000
     16681      1061  TIP3      OH2            -8.4591700968        6.9118235205       30.2945577366  TIP3      961             0.0000000000
     16682      1061  TIP3      H1             -8.6578848318        6.3846810943       31.1084128769  TIP3      961             0.0000000000
     16683      1061  TIP3      H2             -7.5324394415        6.6203183492       30.1069304795  TIP3      961             0.0000000000
     16684      1062  TIP3      OH2            -6.1095148217        5.9821745479       29.2691008837  TIP3      962             0.0000000000
     16685      1062  TIP3      H1             -6.3779490418        5.0988909804       29.5963249354  TIP3      962             0.0000000000
     16686      1062  TIP3      H2             -5.1807752017        5.9580348245       29.5914411337  TIP3      962             0.0000000000
     16687      1063  TIP3      OH2            -3.6784518598        5.7681831115       30.3880624033  TIP3      963             0.0000000000
     16688      1063  TIP3      H1             -3.3688691852        4.8518733497       30.2862719786  TIP3      963             0.0000000000
     16689      1063  TIP3      H2             -3.7148926250        5.8587519673       31.3543470866  TIP3      963             0.0000000000
     16690      1064  TIP3      OH2            -0.8400833449       -8.7651434662       29.2706503197  TIP3      964             0.0000000000
     16691      1064  TIP3      H1             -1.5954490492       -9.2717327645       29.6578719504  TIP3      964             0.0000000000
     16692      1064  TIP3      H2             -0.4556433183       -9.4472572241       28.6963621775  TIP3      964             0.0000000000
     16693      1065  TIP3      OH2             4.9933740928      -10.1936023876       29.1834697421  TIP3      965             0.0000000000
     16694      1065  TIP3      H1              5.6114133667       -9.5247328222       28.8224099692  TIP3      965             0.0000000000
     16695      1065  TIP3      H2              4.1560208119      -10.0061073748       28.7042869471  TIP3      965             0.0000000000
     16696      1066  TIP3      OH2             6.7364876535       -8.9136478277       27.4313745526  TIP3      966             0.0000000000
     16697      1066  TIP3      H1              7.2946280635       -9.6416985868       27.0687679077  TIP3      966             0.0000000000
     16698      1066  TIP3      H2              7.4195300178       -8.2610169065       27.7427042549  TIP3      966             0.0000000000
     16699      1067  TIP3      OH2            -8.0274573729       -9.6891889794       27.1572752094  TIP3      967             0.0000000000
     16700      1067  TIP3      H1             -8.9698322769       -9.8203866090       26.9575534741  TIP3      967             0.0000000000
     16701      1067  TIP3      H2             -7.6687002021      -10.5849375593       26.9441518384  TIP3      967             0.0000000000
     16702      1068  TIP3      OH2            -9.2253143377      -10.1871702575       22.9718289353  TIP3      968             0.0000000000
     16703      1068  TIP3      H1             -9.0294398876       -9.5034300110       23.6319990477  TIP3      968             0.0000000000
     16704      1068  TIP3      H2            -10.1970120373      -10.1482162510       22.9978885086  TIP3      968             0.0000000000
     16705      1069  TIP3      OH2            -4.1869637916       -9.8290305645       26.5890773383  TIP3      969             0.0000000000
     16706      1069  TIP3      H1             -3.2403451821      -10.0350538486       26.4964607818  TIP3      969             0.0000000000
     16707      1069  TIP3      H2             -4.2562847700       -9.5332208571       27.5041286227  TIP3      969             0.0000000000
     16708      1070  TIP3      OH2             2.4347247440       -9.7606703093       27.9512661740  TIP3      970             0.0000000000
     16709      1070  TIP3      H1              2.3541256811      -10.3792513241       27.1948895963  TIP3      970             0.0000000000
     16710      1070  TIP3      H2              1.7900082313      -10.1709989167       28.5660226554  TIP3      970             0.0000000000
     16711      1071  TIP3      OH2             3.7483902996       -9.3244243938       24.0851579689  TIP3      971             0.0000000000
     16712      1071  TIP3      H1              2.9123982171       -8.8311917440       24.0102152585  TIP3      971             0.0000000000
     16713      1071  TIP3      H2              3.3838133799      -10.1591454000       24.4576220991  TIP3      971             0.0000000000
     16714      1072  TIP3      OH2            -9.0952353609        6.1603515055       23.9568556414  TIP3      972             0.0000000000
     16715      1072  TIP3      H1             -9.9912671650        6.4342918901       23.6855705625  TIP3      972             0.0000000000
     16716      1072  TIP3      H2             -8.6018418606        6.8099014766       23.4078217955  TIP3      972             0.0000000000
     16717      1073  TIP3      OH2            -1.9170206893       -7.7753962400       23.5662098280  TIP3      973             0.0000000000
     16718      1073  TIP3      H1             -1.6652504539       -8.1565828631       24.4301414083  TIP3      973             0.0000000000
     16719      1073  TIP3      H2             -1.9004672654       -6.8326741747       23.8014079106  TIP3      973             0.0000000000
     16720      1074  TIP3      OH2            -0.3675399687        7.3800041545       22.0595703635  TIP3      974             0.0000000000
     16721      1074  TIP3      H1              0.5613188413        7.6713453338       21.9981908048  TIP3      974             0.0000000000
     16722      1074  TIP3      H2             -0.4404363329        7.0698603049       21.1158246533  TIP3      974             0.0000000000
     16723      1075  TIP3      OH2             6.3485072369        6.2498584006       25.1216023353  TIP3      975             0.0000000000
     16724      1075  TIP3      H1              6.2040212891        5.3458722171       24.7304503119  TIP3      975             0.0000000000
     16725      1075  TIP3      H2              6.0189825479        6.8055192572       24.3753930539  TIP3      975             0.0000000000
     16726      1076  TIP3      OH2            -8.3573188169       -9.0638702327       36.1596911010  TIP3      976             0.0000000000
     16727      1076  TIP3      H1             -8.8045281884       -9.9189429173       36.2864340388  TIP3      976             0.0000000000
     16728      1076  TIP3      H2             -7.5235021215       -9.1859400110       36.6596836636  TIP3      976             0.0000000000
     16729      1077  TIP3      OH2            -6.4010669637       -9.6363444791       38.1821910107  TIP3      977             0.0000000000
     16730      1077  TIP3      H1             -5.4379222810       -9.7601873997       38.2312648691  TIP3      977             0.0000000000
     16731      1077  TIP3      H2             -6.7146901000      -10.4873103838       38.5671738925  TIP3      977             0.0000000000
     16732      1078  TIP3      OH2             2.2595446620      -10.3747943746       38.5559677414  TIP3      978             0.0000000000
     16733      1078  TIP3      H1              2.3824290616      -10.8492443754       39.4066463104  TIP3      978             0.0000000000
     16734      1078  TIP3      H2              3.1610203760      -10.4363806348       38.1742142448  TIP3      978             0.0000000000
     16735      1079  TIP3      OH2             5.6256853071        5.8218661044       36.8061965216  TIP3      979             0.0000000000
     16736      1079  TIP3      H1              5.0302009843        5.7935861329       36.0207670645  TIP3      979             0.0000000000
     16737      1079  TIP3      H2              5.3795468973        6.6984447525       37.1606348579  TIP3      979             0.0000000000
     16738      1080  TIP3      OH2            20.4289451561       -0.2880208042       26.8113467220  TIP3      980             0.0000000000
     16739      1080  TIP3      H1             20.3044015196        0.5949560294       27.2141055354  TIP3      980             0.0000000000
     16740      1080  TIP3      H2             19.7129065290       -0.2845194951       26.1612958593  TIP3      980             0.0000000000
     16741      1081  TIP3      OH2            18.8498198501       -1.6258261516       30.1258950600  TIP3      981             0.0000000000
     16742      1081  TIP3      H1             19.0268480648       -1.9674197450       31.0250955462  TIP3      981             0.0000000000
     16743      1081  TIP3      H2             18.2192716424       -2.2833031979       29.7777883091  TIP3      981             0.0000000000
     16744      1082  TIP3      OH2            11.1988411158       -1.4921256241       31.5877975172  TIP3      982             0.0000000000
     16745      1082  TIP3      H1             11.3576863577       -2.3637934502       31.9949914396  TIP3      982             0.0000000000
     16746      1082  TIP3      H2             11.6607668564       -0.9240747129       32.2359322260  TIP3      982             0.0000000000
     16747      1083  TIP3      OH2            22.0436907430        1.5599686848       28.8774705776  TIP3      983             0.0000000000
     16748      1083  TIP3      H1             22.0549861436        0.7547194113       29.4295523181  TIP3      983             0.0000000000
     16749      1083  TIP3      H2             22.3230505224        2.2114441543       29.5392682321  TIP3      983             0.0000000000
     16750      1084  TIP3      OH2            11.9249802443        3.0199782487       30.0468242134  TIP3      984             0.0000000000
     16751      1084  TIP3      H1             11.7352057834        2.0688397008       29.8770507568  TIP3      984             0.0000000000
     16752      1084  TIP3      H2             12.8653501526        2.9983070744       29.7865353756  TIP3      984             0.0000000000
     16753      1085  TIP3      OH2             9.0673231508       -3.8643113939       25.8277850449  TIP3      985             0.0000000000
     16754      1085  TIP3      H1              8.6557497610       -2.9979445847       25.9662062674  TIP3      985             0.0000000000
     16755      1085  TIP3      H2              8.4719848242       -4.1886404797       25.1189739677  TIP3      985             0.0000000000
     16756      1086  TIP3      OH2             9.5672767072       -1.1838173573       27.6594912484  TIP3      986             0.0000000000
     16757      1086  TIP3      H1              9.8246938085       -2.0044621980       28.1399187205  TIP3      986             0.0000000000
     16758      1086  TIP3      H2             10.2901967077       -1.0641593176       27.0237174460  TIP3      986             0.0000000000
     16759      1087  TIP3      OH2            19.7703335580        7.0625434410       28.8021902698  TIP3      987             0.0000000000
     16760      1087  TIP3      H1             20.4522052561        6.4702416989       28.3940542521  TIP3      987             0.0000000000
     16761      1087  TIP3      H2             19.3287492338        6.4276825749       29.3804226589  TIP3      987             0.0000000000
     16762      1088  TIP3      OH2            17.1331778855        0.7131544290       31.0966457272  TIP3      988             0.0000000000
     16763      1088  TIP3      H1             17.5159071589        0.0671643728       30.4772061776  TIP3      988             0.0000000000
     16764      1088  TIP3      H2             17.9409133980        1.1534799428       31.4472943749  TIP3      988             0.0000000000
     16765      1089  TIP3      OH2            25.4167835147       -6.9445528065       31.2522335176  TIP3      989             0.0000000000
     16766      1089  TIP3      H1             25.6714393954       -6.5072431713       32.0969968754  TIP3      989             0.0000000000
     16767      1089  TIP3      H2             26.2591064400       -6.9112277380       30.7685513936  TIP3      989             0.0000000000
     16768      1090  TIP3      OH2            20.9101203252       -4.1198336005       31.4019328008  TIP3      990             0.0000000000
     16769      1090  TIP3      H1             21.2918434749       -4.9006410827       31.8421945786  TIP3      990             0.0000000000
     16770      1090  TIP3      H2             20.9491672636       -4.3991937716       30.4696445691  TIP3      990             0.0000000000
     16771      1091  TIP3      OH2            13.8816933494       -6.6963157685       27.9400153971  TIP3      991             0.0000000000
     16772      1091  TIP3      H1             13.9520131152       -5.7862053717       27.5790237260  TIP3      991             0.0000000000
     16773      1091  TIP3      H2             13.2867235541       -7.0718949564       27.2713899975  TIP3      991             0.0000000000
     16774      1092  TIP3      OH2            21.1017433471       -6.1850543629       26.9395897589  TIP3      992             0.0000000000
     16775      1092  TIP3      H1             21.7412870926       -6.3133833920       27.6679930494  TIP3      992             0.0000000000
     16776      1092  TIP3      H2             21.4393368251       -5.3555764116       26.5614872093  TIP3      992             0.0000000000
     16777      1093  TIP3      OH2            10.3171668889       -3.3599619628       29.0089038929  TIP3      993             0.0000000000
     16778      1093  TIP3      H1             10.9960766910       -3.5038776090       29.6804659147  TIP3      993             0.0000000000
     16779      1093  TIP3      H2             10.6101544130       -3.9759946967       28.3046593962  TIP3      993             0.0000000000
     16780      1094  TIP3      OH2            14.7963171757       -2.4578494736       28.5703975730  TIP3      994             0.0000000000
     16781      1094  TIP3      H1             15.7025936542       -2.8121687421       28.6948951242  TIP3      994             0.0000000000
     16782      1094  TIP3      H2             14.4591241843       -3.1062545297       27.9087453138  TIP3      994             0.0000000000
     16783      1095  TIP3      OH2            26.2075679764       -5.8640281539       33.6145989995  TIP3      995             0.0000000000
     16784      1095  TIP3      H1             25.8386396331       -4.9763468355       33.4248612938  TIP3      995             0.0000000000
     16785      1095  TIP3      H2             26.5453091701       -5.7010087574       34.5254640572  TIP3      995             0.0000000000
     16786      1096  TIP3      OH2            12.5512197645       -7.2779799861       32.2875153320  TIP3      996             0.0000000000
     16787      1096  TIP3      H1             12.2524688082       -6.7733740433       31.5040149182  TIP3      996             0.0000000000
     16788      1096  TIP3      H2             11.8328082676       -7.0637248385       32.9246928334  TIP3      996             0.0000000000
     16789      1097  TIP3      OH2            19.4229540607        2.4366512070       25.8332780769  TIP3      997             0.0000000000
     16790      1097  TIP3      H1             19.3849325099        2.3840843424       24.8616301187  TIP3      997             0.0000000000
     16791      1097  TIP3      H2             19.0398522098        3.3156166336       25.9915981166  TIP3      997             0.0000000000
     16792      1098  TIP3      OH2            14.7978442505        0.2563915443       32.4298169666  TIP3      998             0.0000000000
     16793      1098  TIP3      H1             14.2144001258        1.0247306856       32.5815648840  TIP3      998             0.0000000000
     16794      1098  TIP3      H2             15.5705113570        0.6801775047       31.9820175759  TIP3      998             0.0000000000
     16795      1099  TIP3      OH2            23.1615674163       -6.2237906289       28.9189573741  TIP3      999             0.0000000000
     16796      1099  TIP3      H1             23.3050166560       -7.1653776029       29.0828001917  TIP3      999             0.0000000000
     16797      1099  TIP3      H2             23.5205057602       -5.8011739738       29.7351634537  TIP3      999             0.0000000000
     16798      1100  TIP3      OH2            12.2020389286       -5.4469953276       30.2745921969  TIP3      1000            0.0000000000
     16799      1100  TIP3      H1             12.8830447922       -4.8885252406       30.7143839403  TIP3      1000            0.0000000000
     16800      1100  TIP3      H2             12.6495084781       -5.7278691427       29.4498900676  TIP3      1000            0.0000000000
     16801      1101  TIP3      OH2            13.6774946665        2.7280369681       32.6909233726  TIP3      1001            0.0000000000
     16802      1101  TIP3      H1             13.3223270841        2.8401774181       31.7952155319  TIP3      1001            0.0000000000
     16803      1101  TIP3      H2             12.9289292483        3.0290065426       33.2480074866  TIP3      1001            0.0000000000
     16804      1102  TIP3      OH2             9.2721332658        2.0062940546       23.8690132154  TIP3      1002            0.0000000000
     16805      1102  TIP3      H1              9.0383366940        2.1610324902       22.9308571332  TIP3      1002            0.0000000000
     16806      1102  TIP3      H2             10.1172157695        2.4646988908       23.9300655232  TIP3      1002            0.0000000000
     16807      1103  TIP3      OH2            23.0881754927        3.4744203665       31.0077675368  TIP3      1003            0.0000000000
     16808      1103  TIP3      H1             22.1679793809        3.7602409649       31.2049230002  TIP3      1003            0.0000000000
     16809      1103  TIP3      H2             23.3761854142        4.2066658632       30.4391827102  TIP3      1003            0.0000000000
     16810      1104  TIP3      OH2            22.7710069936       -7.6440499117       32.1658853430  TIP3      1004            0.0000000000
     16811      1104  TIP3      H1             22.0435013440       -7.4938765169       31.5294223655  TIP3      1004            0.0000000000
     16812      1104  TIP3      H2             23.5586539223       -7.3933235861       31.6505904411  TIP3      1004            0.0000000000
     16813      1105  TIP3      OH2            15.9051624450      -10.0410274493       29.8536557403  TIP3      1005            0.0000000000
     16814      1105  TIP3      H1             15.4685116524      -10.8627439503       30.1333576354  TIP3      1005            0.0000000000
     16815      1105  TIP3      H2             15.1554916904       -9.4152301350       30.0390203422  TIP3      1005            0.0000000000
     16816      1106  TIP3      OH2            21.4994512016        5.3187378343       27.5512149657  TIP3      1006            0.0000000000
     16817      1106  TIP3      H1             21.5491937810        4.5916760410       26.9047744102  TIP3      1006            0.0000000000
     16818      1106  TIP3      H2             22.3631967780        5.7553653503       27.3498189186  TIP3      1006            0.0000000000
     16819      1107  TIP3      OH2            22.4396580926        3.3395553902       25.9438747279  TIP3      1007            0.0000000000
     16820      1107  TIP3      H1             22.5448814064        2.5902010751       25.3112408894  TIP3      1007            0.0000000000
     16821      1107  TIP3      H2             22.3895866126        2.8381074018       26.7786083893  TIP3      1007            0.0000000000
     16822      1108  TIP3      OH2            24.0185121804        1.9952155081       34.6353681406  TIP3      1008            0.0000000000
     16823      1108  TIP3      H1             24.3597340644        1.3767084321       33.9519818579  TIP3      1008            0.0000000000
     16824      1108  TIP3      H2             24.0449733905        2.8338327948       34.1375872534  TIP3      1008            0.0000000000
     16825      1109  TIP3      OH2            18.7008911383       -0.9872105336       24.2634303064  TIP3      1009            0.0000000000
     16826      1109  TIP3      H1             18.1350994949       -0.2141056910       24.4862893318  TIP3      1009            0.0000000000
     16827      1109  TIP3      H2             18.8319762676       -0.8757472823       23.3091929420  TIP3      1009            0.0000000000
     16828      1110  TIP3      OH2            26.2571620635       -1.5469126852       32.5693250996  TIP3      1010            0.0000000000
     16829      1110  TIP3      H1             25.5881319788       -0.8354641403       32.4331251091  TIP3      1010            0.0000000000
     16830      1110  TIP3      H2             26.8496815668       -1.3411418802       31.8094504423  TIP3      1010            0.0000000000
     16831      1111  TIP3      OH2            22.5542686242       -1.2800034606       25.4487201016  TIP3      1011            0.0000000000
     16832      1111  TIP3      H1             21.8309783323       -0.8980242517       26.0118474462  TIP3      1011            0.0000000000
     16833      1111  TIP3      H2             23.0798109564       -1.7400523087       26.1189083777  TIP3      1011            0.0000000000
     16834      1112  TIP3      OH2            22.2597028854       -2.7441761255       34.4198480986  TIP3      1012            0.0000000000
     16835      1112  TIP3      H1             22.3077217533       -1.8917267301       34.8776298761  TIP3      1012            0.0000000000
     16836      1112  TIP3      H2             21.4960257034       -2.5644425190       33.8483396465  TIP3      1012            0.0000000000
     16837      1113  TIP3      OH2            13.6223183524       -0.2998413523       27.4253242352  TIP3      1013            0.0000000000
     16838      1113  TIP3      H1             13.2089392093       -0.6926126470       26.6335294967  TIP3      1013            0.0000000000
     16839      1113  TIP3      H2             14.0563945177       -1.0633418947       27.8483115449  TIP3      1013            0.0000000000
     16840      1114  TIP3      OH2            14.8838450274        2.8484897132       29.6477902780  TIP3      1014            0.0000000000
     16841      1114  TIP3      H1             14.9400932209        2.7574890104       28.6755988402  TIP3      1014            0.0000000000
     16842      1114  TIP3      H2             15.6762285683        2.3654991809       29.9316074393  TIP3      1014            0.0000000000
     16843      1115  TIP3      OH2            13.9238272870       -1.8287156643       31.0050586009  TIP3      1015            0.0000000000
     16844      1115  TIP3      H1             14.2771369323       -1.8309951632       30.0835348579  TIP3      1015            0.0000000000
     16845      1115  TIP3      H2             14.3755833043       -1.0582121130       31.4162436153  TIP3      1015            0.0000000000
     16846      1116  TIP3      OH2            20.4662518497        3.9845197977       31.5318217468  TIP3      1016            0.0000000000
     16847      1116  TIP3      H1             20.2776781172        4.5624656104       32.2915212221  TIP3      1016            0.0000000000
     16848      1116  TIP3      H2             20.2022521221        3.1117919144       31.8993574893  TIP3      1016            0.0000000000
     16849      1117  TIP3      OH2            15.1792906299        2.8703056584       34.9449988396  TIP3      1017            0.0000000000
     16850      1117  TIP3      H1             14.4841441827        3.4295024972       35.3559839459  TIP3      1017            0.0000000000
     16851      1117  TIP3      H2             14.8180803553        2.7442207671       34.0372340458  TIP3      1017            0.0000000000
     16852      1118  TIP3      OH2            21.7805548054       -1.7975645116       22.9153088656  TIP3      1018            0.0000000000
     16853      1118  TIP3      H1             21.8047608727       -1.5960293398       23.8842752211  TIP3      1018            0.0000000000
     16854      1118  TIP3      H2             21.9059835144       -0.9024668265       22.5683053600  TIP3      1018            0.0000000000
     16855      1119  TIP3      OH2            11.9417621253       -0.9713999487       34.2703271253  TIP3      1019            0.0000000000
     16856      1119  TIP3      H1             12.3633660694       -0.3202862633       34.8574679562  TIP3      1019            0.0000000000
     16857      1119  TIP3      H2             11.2413723677       -1.3184786356       34.8472662146  TIP3      1019            0.0000000000
     16858      1120  TIP3      OH2            18.4066165957        5.2557159387       25.7821089855  TIP3      1020            0.0000000000
     16859      1120  TIP3      H1             18.2808048603        5.4684866085       26.7145809776  TIP3      1020            0.0000000000
     16860      1120  TIP3      H2             18.4133151968        6.1571023712       25.3971791816  TIP3      1020            0.0000000000
     16861      1121  TIP3      OH2            13.6220855409        4.5054071113       36.5671365653  TIP3      1021            0.0000000000
     16862      1121  TIP3      H1             13.5062262659        5.3048445499       36.0088350068  TIP3      1021            0.0000000000
     16863      1121  TIP3      H2             12.7041250586        4.3876689465       36.8994038275  TIP3      1021            0.0000000000
     16864      1122  TIP3      OH2            12.4376150027       -1.4002712969       25.0829170069  TIP3      1022            0.0000000000
     16865      1122  TIP3      H1             13.2120143978       -0.8770440074       24.7764344585  TIP3      1022            0.0000000000
     16866      1122  TIP3      H2             11.8271163893       -1.0928894417       24.4028778523  TIP3      1022            0.0000000000
     16867      1123  TIP3      OH2             9.3544305072        1.7086821285       34.0097074672  TIP3      1023            0.0000000000
     16868      1123  TIP3      H1              9.5041600461        2.6010987956       33.6600394870  TIP3      1023            0.0000000000
     16869      1123  TIP3      H2             10.2472018012        1.3146083693       33.9783470234  TIP3      1023            0.0000000000
     16870      1124  TIP3      OH2             8.6099736073        3.8368854166       30.6394306047  TIP3      1024            0.0000000000
     16871      1124  TIP3      H1              9.5730366885        3.7239619072       30.5740976814  TIP3      1024            0.0000000000
     16872      1124  TIP3      H2              8.5474563753        4.7358397580       30.9982254950  TIP3      1024            0.0000000000
     16873      1125  TIP3      OH2            26.8472870783        4.9277469510       35.8411193451  TIP3      1025            0.0000000000
     16874      1125  TIP3      H1             27.0252429895        3.9880553582       35.9494956821  TIP3      1025            0.0000000000
     16875      1125  TIP3      H2             26.0258221088        5.0649559171       36.3810438001  TIP3      1025            0.0000000000
     16876      1126  TIP3      OH2            17.6130357850        4.1720891929       34.9562841885  TIP3      1026            0.0000000000
     16877      1126  TIP3      H1             17.6579277231        4.9498636901       35.5555267349  TIP3      1026            0.0000000000
     16878      1126  TIP3      H2             16.6883735587        3.8519008311       35.0561529722  TIP3      1026            0.0000000000
     16879      1127  TIP3      OH2            18.2698152021        7.7139186597       24.5578446468  TIP3      1027            0.0000000000
     16880      1127  TIP3      H1             18.3627496946        8.2562124640       23.7478928985  TIP3      1027            0.0000000000
     16881      1127  TIP3      H2             18.1423972989        8.4540993345       25.1820868782  TIP3      1027            0.0000000000
     16882      1128  TIP3      OH2            11.6551808860        6.6937137990       26.7600351192  TIP3      1028            0.0000000000
     16883      1128  TIP3      H1             12.1167614970        6.6502965910       27.6424907047  TIP3      1028            0.0000000000
     16884      1128  TIP3      H2             11.1888030639        5.8291426761       26.7926213878  TIP3      1028            0.0000000000
     16885      1129  TIP3      OH2            20.9935188199        6.9155878438       24.1422626858  TIP3      1029            0.0000000000
     16886      1129  TIP3      H1             20.2014516166        7.3321414817       24.5302479239  TIP3      1029            0.0000000000
     16887      1129  TIP3      H2             21.1133879278        6.1155529794       24.6801629503  TIP3      1029            0.0000000000
     16888      1130  TIP3      OH2            23.6077097121       -4.0563311062       36.7406580883  TIP3      1030            0.0000000000
     16889      1130  TIP3      H1             23.0144917796       -3.6883037698       36.0595215271  TIP3      1030            0.0000000000
     16890      1130  TIP3      H2             23.8283910683       -4.9152064563       36.3243191785  TIP3      1030            0.0000000000
     16891      1131  TIP3      OH2            11.8161472131        2.6963250830       34.7252806064  TIP3      1031            0.0000000000
     16892      1131  TIP3      H1             12.2670848816        2.3405889109       35.5214616699  TIP3      1031            0.0000000000
     16893      1131  TIP3      H2             10.9826863141        2.9319471827       35.1486087207  TIP3      1031            0.0000000000
     16894      1132  TIP3      OH2            13.7477873738       -8.8794214802       30.6337249120  TIP3      1032            0.0000000000
     16895      1132  TIP3      H1             12.8962161379       -8.9558348004       30.1597444445  TIP3      1032            0.0000000000
     16896      1132  TIP3      H2             13.4768471193       -8.3554507712       31.4199063996  TIP3      1032            0.0000000000
     16897      1133  TIP3      OH2            18.6969821759       -9.2574258069       33.6022858054  TIP3      1033            0.0000000000
     16898      1133  TIP3      H1             18.9796162297       -9.7949029045       34.3761742731  TIP3      1033            0.0000000000
     16899      1133  TIP3      H2             17.7138910823       -9.2642367166       33.6919245108  TIP3      1033            0.0000000000
     16900      1134  TIP3      OH2            21.2637810155       -5.3831296922       34.8794728515  TIP3      1034            0.0000000000
     16901      1134  TIP3      H1             20.6150663098       -5.7910483958       35.4969626753  TIP3      1034            0.0000000000
     16902      1134  TIP3      H2             20.9903614965       -4.4518168402       34.8887318609  TIP3      1034            0.0000000000
     16903      1135  TIP3      OH2            13.8834231118       -4.2313746774       32.0958518621  TIP3      1035            0.0000000000
     16904      1135  TIP3      H1             13.0479882867       -4.0844793087       32.5753752521  TIP3      1035            0.0000000000
     16905      1135  TIP3      H2             13.9759878060       -3.3483791450       31.6628371131  TIP3      1035            0.0000000000
     16906      1136  TIP3      OH2            13.8473217069       -4.2420458167       26.7602118557  TIP3      1036            0.0000000000
     16907      1136  TIP3      H1             12.9026751030       -4.4085356247       26.5649058810  TIP3      1036            0.0000000000
     16908      1136  TIP3      H2             14.2282519885       -4.1690315184       25.8499725064  TIP3      1036            0.0000000000
     16909      1137  TIP3      OH2            19.4211853497       -3.1927187839       25.6027627230  TIP3      1037            0.0000000000
     16910      1137  TIP3      H1             19.1088836800       -2.3836351238       25.1317693637  TIP3      1037            0.0000000000
     16911      1137  TIP3      H2             19.9946757840       -3.5852292678       24.9215188018  TIP3      1037            0.0000000000
     16912      1138  TIP3      OH2            17.8085268769       -2.9634295650       36.9656869633  TIP3      1038            0.0000000000
     16913      1138  TIP3      H1             17.5282635870       -3.8552676465       37.2754135107  TIP3      1038            0.0000000000
     16914      1138  TIP3      H2             18.7607050668       -3.0050327171       37.1664399982  TIP3      1038            0.0000000000
     16915      1139  TIP3      OH2            20.4397649640       -3.5086050810       28.4013302478  TIP3      1039            0.0000000000
     16916      1139  TIP3      H1             20.0872767742       -2.6647540622       28.0467729455  TIP3      1039            0.0000000000
     16917      1139  TIP3      H2             20.2420697026       -4.0826680967       27.6458630884  TIP3      1039            0.0000000000
     16918      1140  TIP3      OH2            11.1249296629       -3.9594297393       33.0552798949  TIP3      1040            0.0000000000
     16919      1140  TIP3      H1             11.5051156469       -3.6406896993       33.8874802815  TIP3      1040            0.0000000000
     16920      1140  TIP3      H2             10.8914373940       -4.8850760264       33.2744923913  TIP3      1040            0.0000000000
     16921      1141  TIP3      OH2             8.5076946675       -6.8287409547       27.6634405982  TIP3      1041            0.0000000000
     16922      1141  TIP3      H1              9.2024447090       -6.8103301783       28.3586911336  TIP3      1041            0.0000000000
     16923      1141  TIP3      H2              8.7631214256       -6.0850788978       27.0884007151  TIP3      1041            0.0000000000
     16924      1142  TIP3      OH2             9.2463309860       -5.7726396615       22.3709301911  TIP3      1042            0.0000000000
     16925      1142  TIP3      H1              9.9926452122       -6.1657925879       22.8364895056  TIP3      1042            0.0000000000
     16926      1142  TIP3      H2              8.7576959338       -5.3761328743       23.1114387487  TIP3      1042            0.0000000000
     16927      1143  TIP3      OH2            19.4793798226       -2.1802081051       32.8030305716  TIP3      1043            0.0000000000
     16928      1143  TIP3      H1             20.0420205073       -2.8503748048       32.3541814541  TIP3      1043            0.0000000000
     16929      1143  TIP3      H2             18.9667775235       -2.7405096429       33.4259054655  TIP3      1043            0.0000000000
     16930      1144  TIP3      OH2            16.9037326212       -6.6666948171       27.7408302586  TIP3      1044            0.0000000000
     16931      1144  TIP3      H1             15.9760215442       -6.7574929622       28.0262274229  TIP3      1044            0.0000000000
     16932      1144  TIP3      H2             17.4057096739       -7.0906872459       28.4613459923  TIP3      1044            0.0000000000
     16933      1145  TIP3      OH2            11.2163442159       -4.9631474972       26.8582731183  TIP3      1045            0.0000000000
     16934      1145  TIP3      H1             10.4649237457       -4.6005241879       26.3308179661  TIP3      1045            0.0000000000
     16935      1145  TIP3      H2             11.4098253663       -5.8007485352       26.3899123909  TIP3      1045            0.0000000000
     16936      1146  TIP3      OH2            14.8554889787       -4.7127399795       24.2075534659  TIP3      1046            0.0000000000
     16937      1146  TIP3      H1             15.7056802890       -5.2046244235       24.2568962393  TIP3      1046            0.0000000000
     16938      1146  TIP3      H2             14.9711558752       -4.3303777098       23.3281039608  TIP3      1046            0.0000000000
     16939      1147  TIP3      OH2            20.5208344321       -7.2427071934       30.7216146415  TIP3      1047            0.0000000000
     16940      1147  TIP3      H1             19.7430563262       -7.0985048516       31.2915144553  TIP3      1047            0.0000000000
     16941      1147  TIP3      H2             20.2231350717       -7.9779730309       30.1542112954  TIP3      1047            0.0000000000
     16942      1148  TIP3      OH2            23.6366305236        8.4018288899       37.4024414367  TIP3      1048            0.0000000000
     16943      1148  TIP3      H1             24.0918336189        8.5842925811       36.5613763744  TIP3      1048            0.0000000000
     16944      1148  TIP3      H2             24.1595677533        8.9542169028       38.0042908895  TIP3      1048            0.0000000000
     16945      1149  TIP3      OH2            11.5861647215        0.9498100461       36.7587505132  TIP3      1049            0.0000000000
     16946      1149  TIP3      H1             12.3504596417        1.1083221338       37.3480558663  TIP3      1049            0.0000000000
     16947      1149  TIP3      H2             10.8573861007        0.8199469229       37.3957627767  TIP3      1049            0.0000000000
     16948      1150  TIP3      OH2            17.1061104625       -3.6853952148       29.3681142257  TIP3      1050            0.0000000000
     16949      1150  TIP3      H1             17.9387834161       -4.0751319710       29.0533110084  TIP3      1050            0.0000000000
     16950      1150  TIP3      H2             16.6885014980       -4.4430175064       29.8005999823  TIP3      1050            0.0000000000
     16951      1151  TIP3      OH2            12.2931904558       -7.5289894451       25.7749302217  TIP3      1051            0.0000000000
     16952      1151  TIP3      H1             11.8101936473       -8.2364376420       26.2677347087  TIP3      1051            0.0000000000
     16953      1151  TIP3      H2             13.0323048891       -8.0420627414       25.4154201409  TIP3      1051            0.0000000000
     16954      1152  TIP3      OH2            16.1523197297       -5.6111850885       32.0614501420  TIP3      1052            0.0000000000
     16955      1152  TIP3      H1             15.3649551814       -5.0315040302       32.1233961845  TIP3      1052            0.0000000000
     16956      1152  TIP3      H2             16.8437114019       -5.0377412736       32.4099782789  TIP3      1052            0.0000000000
     16957      1153  TIP3      OH2            17.0548419347        1.1089377363       24.3187922216  TIP3      1053            0.0000000000
     16958      1153  TIP3      H1             16.1804558181        0.9864633175       23.8820750986  TIP3      1053            0.0000000000
     16959      1153  TIP3      H2             16.6953281280        1.4159938919       25.1926052591  TIP3      1053            0.0000000000
     16960      1154  TIP3      OH2            24.5884201869        0.4820806373       32.5270163902  TIP3      1054            0.0000000000
     16961      1154  TIP3      H1             25.0287219156        1.1162306478       31.9097242742  TIP3      1054            0.0000000000
     16962      1154  TIP3      H2             23.7204362727        0.4102712710       32.1016312119  TIP3      1054            0.0000000000
     16963      1155  TIP3      OH2            20.1473433257       -6.0435539556       21.9482281579  TIP3      1055            0.0000000000
     16964      1155  TIP3      H1             19.3330041085       -5.5146195749       21.8357417089  TIP3      1055            0.0000000000
     16965      1155  TIP3      H2             20.7360284729       -5.4222348070       22.4189740178  TIP3      1055            0.0000000000
     16966      1156  TIP3      OH2            17.9491996591        1.4329019551       34.6541393742  TIP3      1056            0.0000000000
     16967      1156  TIP3      H1             17.7062635311        1.1731275480       35.5584087373  TIP3      1056            0.0000000000
     16968      1156  TIP3      H2             17.7837222799        2.3944141122       34.7031497587  TIP3      1056            0.0000000000
     16969      1157  TIP3      OH2            21.3086173765       -4.3176960659       23.5946405293  TIP3      1057            0.0000000000
     16970      1157  TIP3      H1             22.0856836685       -4.2377854790       24.1731540861  TIP3      1057            0.0000000000
     16971      1157  TIP3      H2             21.3640938010       -3.4725032050       23.0884346025  TIP3      1057            0.0000000000
     16972      1158  TIP3      OH2            12.2953925227        0.3564790476       29.6681528008  TIP3      1058            0.0000000000
     16973      1158  TIP3      H1             12.8247283309        0.1818118342       28.8578488749  TIP3      1058            0.0000000000
     16974      1158  TIP3      H2             12.3689299570       -0.4755417709       30.1721688095  TIP3      1058            0.0000000000
     16975      1159  TIP3      OH2            18.8811598673        2.6347916695       23.0011428433  TIP3      1059            0.0000000000
     16976      1159  TIP3      H1             18.4083070934        3.4563877771       23.2017580921  TIP3      1059            0.0000000000
     16977      1159  TIP3      H2             18.2613223458        1.9504030338       23.3251742977  TIP3      1059            0.0000000000
     16978      1160  TIP3      OH2             8.9010594021       -1.3356404878       34.4777238663  TIP3      1060            0.0000000000
     16979      1160  TIP3      H1              9.1335039619       -1.4717451692       35.4188177295  TIP3      1060            0.0000000000
     16980      1160  TIP3      H2              8.5566110734       -2.2096545029       34.2570265809  TIP3      1060            0.0000000000
     16981      1161  TIP3      OH2            15.3027434555       -1.7140015548       36.7489323826  TIP3      1061            0.0000000000
     16982      1161  TIP3      H1             15.2036914475       -2.4636388113       36.1466002091  TIP3      1061            0.0000000000
     16983      1161  TIP3      H2             16.2325011567       -1.8317740258       37.0274028296  TIP3      1061            0.0000000000
     16984      1162  TIP3      OH2            20.9896219857        3.6348860945       34.8909447127  TIP3      1062            0.0000000000
     16985      1162  TIP3      H1             20.1201049363        3.7272624994       34.4841557244  TIP3      1062            0.0000000000
     16986      1162  TIP3      H2             20.7691551189        3.9235558947       35.8031636455  TIP3      1062            0.0000000000
     16987      1163  TIP3      OH2            25.2669019929       -3.9086834538       23.7555467430  TIP3      1063            0.0000000000
     16988      1163  TIP3      H1             25.2598154951       -4.0710519548       22.8056605153  TIP3      1063            0.0000000000
     16989      1163  TIP3      H2             25.6511668856       -3.0198970619       23.8243016614  TIP3      1063            0.0000000000
     16990      1164  TIP3      OH2            26.5794734727        1.6541912398       35.8984679731  TIP3      1064            0.0000000000
     16991      1164  TIP3      H1             25.6516784105        1.9243955864       35.7368284587  TIP3      1064            0.0000000000
     16992      1164  TIP3      H2             26.9044594172        1.5320900450       34.9729091157  TIP3      1064            0.0000000000
     16993      1165  TIP3      OH2            24.5580777766        4.5160159280       23.5348331871  TIP3      1065            0.0000000000
     16994      1165  TIP3      H1             24.1634487114        3.8713337675       24.1382195925  TIP3      1065            0.0000000000
     16995      1165  TIP3      H2             24.2633534050        4.1907379387       22.6732566836  TIP3      1065            0.0000000000
     16996      1166  TIP3      OH2            21.9056312351       -0.5189014791       30.5923396028  TIP3      1066            0.0000000000
     16997      1166  TIP3      H1             20.9701950500       -0.6349240418       30.3668074223  TIP3      1066            0.0000000000
     16998      1166  TIP3      H2             22.3172559062       -1.2553955444       30.0791182178  TIP3      1066            0.0000000000
     16999      1167  TIP3      OH2            14.2262437315        3.8319409765       26.7170476181  TIP3      1067            0.0000000000
     17000      1167  TIP3      H1             14.3727554330        4.7545350045       26.4107375195  TIP3      1067            0.0000000000
     17001      1167  TIP3      H2             13.6240478496        3.4899407589       26.0499831465  TIP3      1067            0.0000000000
     17002      1168  TIP3      OH2            15.8628708561        1.5648172471       26.6744275476  TIP3      1068            0.0000000000
     17003      1168  TIP3      H1             15.2506360506        2.3120251181       26.5304416373  TIP3      1068            0.0000000000
     17004      1168  TIP3      H2             15.2776538068        0.8005943273       26.7967910100  TIP3      1068            0.0000000000
     17005      1169  TIP3      OH2            16.2713072243        5.7861512669       33.1235128582  TIP3      1069            0.0000000000
     17006      1169  TIP3      H1             16.9447441212        6.3307401429       32.6585167181  TIP3      1069            0.0000000000
     17007      1169  TIP3      H2             16.8544897188        5.2246447245       33.6662129674  TIP3      1069            0.0000000000
     17008      1170  TIP3      OH2            14.4968774534        6.5044586455       25.9928122385  TIP3      1070            0.0000000000
     17009      1170  TIP3      H1             13.6237212229        6.6674035276       26.3757274697  TIP3      1070            0.0000000000
     17010      1170  TIP3      H2             14.9441897185        7.3582315903       26.1826576687  TIP3      1070            0.0000000000
     17011      1171  TIP3      OH2            19.4204920925        1.5993947032       32.4085753387  TIP3      1071            0.0000000000
     17012      1171  TIP3      H1             19.0136861200        1.3772998871       33.2843950804  TIP3      1071            0.0000000000
     17013      1171  TIP3      H2             19.7199983776        0.7234960622       32.1122074243  TIP3      1071            0.0000000000
     17014      1172  TIP3      OH2            22.7997396879        6.0180494423       34.8876239097  TIP3      1072            0.0000000000
     17015      1172  TIP3      H1             21.9973407486        5.4686493669       34.8014353656  TIP3      1072            0.0000000000
     17016      1172  TIP3      H2             22.6432903369        6.7182553179       34.2082330114  TIP3      1072            0.0000000000
     17017      1173  TIP3      OH2            10.5599559481       -6.7089091216       33.9839652305  TIP3      1073            0.0000000000
     17018      1173  TIP3      H1             10.0914909953       -6.3396819751       34.7550225943  TIP3      1073            0.0000000000
     17019      1173  TIP3      H2             10.6078145859       -7.6495087727       34.2442636063  TIP3      1073            0.0000000000
     17020      1174  TIP3      OH2            23.0677724990        1.2899330262       24.3360886272  TIP3      1074            0.0000000000
     17021      1174  TIP3      H1             22.9170038208        0.3733188860       24.6262746795  TIP3      1074            0.0000000000
     17022      1174  TIP3      H2             24.0288772277        1.2859594920       24.1317508224  TIP3      1074            0.0000000000
     17023      1175  TIP3      OH2            10.2565192005        5.0407129305       32.7797501863  TIP3      1075            0.0000000000
     17024      1175  TIP3      H1             11.0997361179        4.5780113192       32.7226779252  TIP3      1075            0.0000000000
     17025      1175  TIP3      H2             10.4119973540        5.6091069984       33.5475325563  TIP3      1075            0.0000000000
     17026      1176  TIP3      OH2            11.2784770501        0.5587753813       22.5461942521  TIP3      1076            0.0000000000
     17027      1176  TIP3      H1             10.6976717424        0.9112969243       23.2359146250  TIP3      1076            0.0000000000
     17028      1176  TIP3      H2             12.1454124186        0.9971303327       22.7234138544  TIP3      1076            0.0000000000
     17029      1177  TIP3      OH2            19.3038025981       -6.6119234533       33.4157841053  TIP3      1077            0.0000000000
     17030      1177  TIP3      H1             20.2497159865       -6.4758666647       33.6139507317  TIP3      1077            0.0000000000
     17031      1177  TIP3      H2             19.1172565256       -7.5218534452       33.7269688054  TIP3      1077            0.0000000000
     17032      1178  TIP3      OH2            20.1375223934       -7.4647568803       24.7285744797  TIP3      1078            0.0000000000
     17033      1178  TIP3      H1             20.0008763246       -6.8391310499       23.9970248305  TIP3      1078            0.0000000000
     17034      1178  TIP3      H2             20.6467005044       -6.9410814073       25.3843471036  TIP3      1078            0.0000000000
     17035      1179  TIP3      OH2            17.7640635635        5.5259579551       22.7408599916  TIP3      1079            0.0000000000
     17036      1179  TIP3      H1             16.8075227606        5.6175409209       22.9504909970  TIP3      1079            0.0000000000
     17037      1179  TIP3      H2             18.1235614714        5.5918026801       23.6362731921  TIP3      1079            0.0000000000
     17038      1180  TIP3      OH2            17.3655258396       -5.1954758734       25.2525663318  TIP3      1080            0.0000000000
     17039      1180  TIP3      H1             17.9841131400       -4.4719999374       25.4498693597  TIP3      1080            0.0000000000
     17040      1180  TIP3      H2             17.2723047236       -5.6674918046       26.1032766299  TIP3      1080            0.0000000000
     17041      1181  TIP3      OH2            18.3437313477       -4.1756387611       34.3172127455  TIP3      1081            0.0000000000
     17042      1181  TIP3      H1             18.0008925319       -4.0760122628       35.2225103953  TIP3      1081            0.0000000000
     17043      1181  TIP3      H2             18.5518916168       -5.1313224751       34.2219788228  TIP3      1081            0.0000000000
     17044      1182  TIP3      OH2            18.3381098911       -8.7251979097       26.3479366247  TIP3      1082            0.0000000000
     17045      1182  TIP3      H1             17.7474642304       -7.9430159275       26.3299828286  TIP3      1082            0.0000000000
     17046      1182  TIP3      H2             19.0901875355       -8.3389501001       25.8374966065  TIP3      1082            0.0000000000
     17047      1183  TIP3      OH2            15.1287006297        5.9721053106       23.3044659237  TIP3      1083            0.0000000000
     17048      1183  TIP3      H1             14.9251977692        6.7476382124       22.7509178024  TIP3      1083            0.0000000000
     17049      1183  TIP3      H2             14.8154205657        6.2203691108       24.2004138769  TIP3      1083            0.0000000000
     17050      1184  TIP3      OH2            24.1783489058       -6.4550383842       35.5696590748  TIP3      1084            0.0000000000
     17051      1184  TIP3      H1             23.2550745142       -6.7275214476       35.4142254545  TIP3      1084            0.0000000000
     17052      1184  TIP3      H2             24.5112130372       -6.2928197202       34.6685048987  TIP3      1084            0.0000000000
     17053      1185  TIP3      OH2            22.9227520779       -2.5147888517       29.0962227795  TIP3      1085            0.0000000000
     17054      1185  TIP3      H1             22.0889742448       -3.0178142201       28.9897532671  TIP3      1085            0.0000000000
     17055      1185  TIP3      H2             23.4375409628       -3.1425974063       29.6573148132  TIP3      1085            0.0000000000
     17056      1186  TIP3      OH2            12.0850690861        3.6550370097       22.3782011413  TIP3      1086            0.0000000000
     17057      1186  TIP3      H1             12.4047851311        4.1668455753       21.6088455407  TIP3      1086            0.0000000000
     17058      1186  TIP3      H2             12.8363430886        3.7874751533       22.9735931709  TIP3      1086            0.0000000000
     17059      1187  TIP3      OH2            23.7473929991        6.5675564880       30.8045654476  TIP3      1087            0.0000000000
     17060      1187  TIP3      H1             23.7282597648        7.1718031183       30.0295980702  TIP3      1087            0.0000000000
     17061      1187  TIP3      H2             24.6793441968        6.6976298002       31.0851643929  TIP3      1087            0.0000000000
     17062      1188  TIP3      OH2            11.1311225327       -9.2474811460       30.0226577601  TIP3      1088            0.0000000000
     17063      1188  TIP3      H1             11.0631516361       -9.5293661002       29.0885417347  TIP3      1088            0.0000000000
     17064      1188  TIP3      H2             10.9821594245      -10.1111021924       30.4769763602  TIP3      1088            0.0000000000
     17065      1189  TIP3      OH2            10.1488123385        4.4342040231       26.2547676462  TIP3      1089            0.0000000000
     17066      1189  TIP3      H1             10.1244518803        3.4782252955       26.4467483468  TIP3      1089            0.0000000000
     17067      1189  TIP3      H2             10.1502661209        4.4509227843       25.2838233274  TIP3      1089            0.0000000000
     17068      1190  TIP3      OH2             9.2857168496        7.3016783157       36.8653928679  TIP3      1090            0.0000000000
     17069      1190  TIP3      H1             10.0215867279        7.0915531040       37.4670984189  TIP3      1090            0.0000000000
     17070      1190  TIP3      H2              8.8385028282        6.4402241191       36.7537251675  TIP3      1090            0.0000000000
     17071      1191  TIP3      OH2            14.2159846792        5.8875646873       39.1998471602  TIP3      1091            0.0000000000
     17072      1191  TIP3      H1             15.1541849496        5.7970500912       39.4298652665  TIP3      1091            0.0000000000
     17073      1191  TIP3      H2             14.1080150645        5.2495384068       38.4787160016  TIP3      1091            0.0000000000
     17074      1192  TIP3      OH2            20.4345471738        4.7588360007       37.4065716463  TIP3      1092            0.0000000000
     17075      1192  TIP3      H1             20.2663765174        3.8893871856       37.8488994419  TIP3      1092            0.0000000000
     17076      1192  TIP3      H2             21.3396233514        4.9461480618       37.7139381467  TIP3      1092            0.0000000000
     17077      1193  TIP3      OH2             9.1539130322        0.7878314702       38.0550255493  TIP3      1093            0.0000000000
     17078      1193  TIP3      H1              8.9648792973       -0.1670990760       38.0642643431  TIP3      1093            0.0000000000
     17079      1193  TIP3      H2              8.5246682884        1.0900628131       37.3700873584  TIP3      1093            0.0000000000
     17080      1194  TIP3      OH2            15.9856523936        0.8492460646       36.6039096881  TIP3      1094            0.0000000000
     17081      1194  TIP3      H1             15.6738349816        1.5274843510       35.9625116029  TIP3      1094            0.0000000000
     17082      1194  TIP3      H2             15.7293745781       -0.0162716593       36.2079280540  TIP3      1094            0.0000000000
     17083      1195  TIP3      OH2            21.6564125672        0.7944827239       34.8722021364  TIP3      1095            0.0000000000
     17084      1195  TIP3      H1             22.4900091916        1.3212130881       34.8503368085  TIP3      1095            0.0000000000
     17085      1195  TIP3      H2             21.0474658386        1.5338484677       35.0504759300  TIP3      1095            0.0000000000
     17086      1196  TIP3      OH2             9.9268017202       -1.7379476197       37.2912649892  TIP3      1096            0.0000000000
     17087      1196  TIP3      H1              9.7806344790       -2.6256436422       37.6530652714  TIP3      1096            0.0000000000
     17088      1196  TIP3      H2             10.3562244478       -1.3291308173       38.0790072321  TIP3      1096            0.0000000000
     17089      1197  TIP3      OH2            15.0809628796       -1.7948816796       21.7150105430  TIP3      1097            0.0000000000
     17090      1197  TIP3      H1             15.2067848273       -1.0613848207       22.3276304547  TIP3      1097            0.0000000000
     17091      1197  TIP3      H2             15.9222523732       -2.2614562824       21.7367391565  TIP3      1097            0.0000000000
     17092      1198  TIP3      OH2            13.8497315296       -2.9480149524       34.6351748247  TIP3      1098            0.0000000000
     17093      1198  TIP3      H1             13.2864191180       -2.1771155689       34.4492130887  TIP3      1098            0.0000000000
     17094      1198  TIP3      H2             14.6733315492       -2.6444220461       34.2041648752  TIP3      1098            0.0000000000
     17095      1199  TIP3      OH2            19.6232439055       -0.2406240443       38.4492556061  TIP3      1099            0.0000000000
     17096      1199  TIP3      H1             20.1544451556       -0.3739867500       37.6496963906  TIP3      1099            0.0000000000
     17097      1199  TIP3      H2             18.9407063292       -0.9137205520       38.3867272667  TIP3      1099            0.0000000000
     17098      1200  TIP3      OH2            14.6432921593       -5.3908573428       35.7476123109  TIP3      1100            0.0000000000
     17099      1200  TIP3      H1             14.6553569277       -6.1094839598       35.0794127428  TIP3      1100            0.0000000000
     17100      1200  TIP3      H2             14.2049050085       -4.6572824036       35.2683605352  TIP3      1100            0.0000000000
     17101      1201  TIP3      OH2            14.8258168891       -7.2769037858       33.5992072971  TIP3      1101            0.0000000000
     17102      1201  TIP3      H1             15.3392607378       -6.7888262553       32.9108615004  TIP3      1101            0.0000000000
     17103      1201  TIP3      H2             13.9192934519       -7.2315821033       33.2250470828  TIP3      1101            0.0000000000
     17104      1202  TIP3      OH2            16.2127767523       -1.4858160276       33.8070289495  TIP3      1102            0.0000000000
     17105      1202  TIP3      H1             17.1276075925       -1.3570332039       33.5385088433  TIP3      1102            0.0000000000
     17106      1202  TIP3      H2             15.7428475536       -0.7726555672       33.3167280902  TIP3      1102            0.0000000000
     17107      1203  TIP3      OH2            20.3740913420       -3.6656211783       38.5988140982  TIP3      1103            0.0000000000
     17108      1203  TIP3      H1             20.5385976290       -4.5970452817       38.8664546212  TIP3      1103            0.0000000000
     17109      1203  TIP3      H2             21.2860099475       -3.3405986282       38.5565398612  TIP3      1103            0.0000000000
     17110      1204  TIP3      OH2            22.6067211840       -0.8083490705       36.8539600014  TIP3      1104            0.0000000000
     17111      1204  TIP3      H1             22.1969775176       -0.2499372880       36.1558543727  TIP3      1104            0.0000000000
     17112      1204  TIP3      H2             23.5562644072       -0.7580698055       36.6032847589  TIP3      1104            0.0000000000
     17113      1205  TIP3      OH2            13.2290435916       -4.7115462212       37.9002982732  TIP3      1105            0.0000000000
     17114      1205  TIP3      H1             12.3881252177       -5.0426942429       37.5147745678  TIP3      1105            0.0000000000
     17115      1205  TIP3      H2             13.8627118877       -5.0213293264       37.2159033287  TIP3      1105            0.0000000000
     17116      1206  TIP3      OH2            15.9242106257       -9.6933839928       33.5975896233  TIP3      1106            0.0000000000
     17117      1206  TIP3      H1             15.5508548846       -8.7864772529       33.6711534271  TIP3      1106            0.0000000000
     17118      1206  TIP3      H2             15.1517250386      -10.1701404415       33.2604945059  TIP3      1106            0.0000000000
     17119      1207  TIP3      OH2            16.8352084124       -5.5166763426       37.5867748603  TIP3      1107            0.0000000000
     17120      1207  TIP3      H1             16.3366931336       -5.8423534041       38.3639911754  TIP3      1107            0.0000000000
     17121      1207  TIP3      H2             16.1550214470       -5.6568714909       36.8960554218  TIP3      1107            0.0000000000
     17122      1208  TIP3      OH2            19.4167436905       -6.0176312829       36.8383470493  TIP3      1108            0.0000000000
     17123      1208  TIP3      H1             18.4919726857       -6.0240117771       37.1417725941  TIP3      1108            0.0000000000
     17124      1208  TIP3      H2             19.7797545277       -6.7046548805       37.4397115492  TIP3      1108            0.0000000000
     17125      1209  TIP3      OH2            20.6325731987       -7.8215127842       38.3916932805  TIP3      1109            0.0000000000
     17126      1209  TIP3      H1             20.7986838257       -8.7837538830       38.4957693551  TIP3      1109            0.0000000000
     17127      1209  TIP3      H2             20.7681957139       -7.4602102589       39.2871846908  TIP3      1109            0.0000000000
     17128      1210  TIP3      OH2            11.0041684415       -6.0907654684       37.3492845852  TIP3      1110            0.0000000000
     17129      1210  TIP3      H1             10.8027355538       -6.9970008008       37.0653443214  TIP3      1110            0.0000000000
     17130      1210  TIP3      H2             11.0973540825       -6.1982235688       38.3272503008  TIP3      1110            0.0000000000
     17131      1211  TIP3      OH2            15.4932506908      -10.1294984473       36.3793492498  TIP3      1111            0.0000000000
     17132      1211  TIP3      H1             16.2939693903      -10.6103539041       36.6508460540  TIP3      1111            0.0000000000
     17133      1211  TIP3      H2             15.6051983907      -10.1568503966       35.4069743578  TIP3      1111            0.0000000000
     17134      1212  TIP3      OH2            15.3830254423       -9.0717194505       39.1529443203  TIP3      1112            0.0000000000
     17135      1212  TIP3      H1             15.5853886689       -9.4222997185       38.2645210303  TIP3      1112            0.0000000000
     17136      1212  TIP3      H2             14.8384253399       -8.2904390484       38.9493402992  TIP3      1112            0.0000000000
     17137      1213  TIP3      OH2            15.3861749391        8.2273269302       21.7780367826  TIP3      1113            0.0000000000
     17138      1213  TIP3      H1             16.2428606964        8.6859270970       21.6747647217  TIP3      1113            0.0000000000
     17139      1213  TIP3      H2             15.4042012352        7.5383521759       21.0946294771  TIP3      1113            0.0000000000
     17140      1214  TIP3      OH2             9.7450478279        2.9151572680       21.1476107578  TIP3      1114            0.0000000000
     17141      1214  TIP3      H1             10.6415475015        2.8508667846       21.5417275769  TIP3      1114            0.0000000000
     17142      1214  TIP3      H2              9.8448165769        2.4109384383       20.3351011038  TIP3      1114            0.0000000000
     17143      1215  TIP3      OH2             7.2530297449        8.1071593129       26.9995152153  TIP3      1115            0.0000000000
     17144      1215  TIP3      H1              6.8354951923        7.3777655620       26.4939114877  TIP3      1115            0.0000000000
     17145      1215  TIP3      H2              7.5625763974        7.6517361489       27.8010002062  TIP3      1115            0.0000000000
     17146      1216  TIP3      OH2             8.9100794949        6.1890858526       28.1570064072  TIP3      1116            0.0000000000
     17147      1216  TIP3      H1              8.4741479624        5.3768583984       28.4593435113  TIP3      1116            0.0000000000
     17148      1216  TIP3      H2              9.5145981396        6.3751426269       28.9087682098  TIP3      1116            0.0000000000
     17149      1217  TIP3      OH2            26.2674389541        7.5802124123       31.3300587391  TIP3      1117            0.0000000000
     17150      1217  TIP3      H1             26.4950584893        8.0300638296       32.1669600017  TIP3      1117            0.0000000000
     17151      1217  TIP3      H2             27.1424152292        7.5877091991       30.9013541562  TIP3      1117            0.0000000000
     17152      1218  TIP3      OH2            25.9763214525        6.7094239734       34.0113882846  TIP3      1118            0.0000000000
     17153      1218  TIP3      H1             25.6329619214        6.0547790519       33.3770676567  TIP3      1118            0.0000000000
     17154      1218  TIP3      H2             26.3109795593        6.1189195853       34.7243510476  TIP3      1118            0.0000000000
     17155      1219  TIP3      OH2            24.9572309627        2.5291304525       38.7396215715  TIP3      1119            0.0000000000
     17156      1219  TIP3      H1             24.0909661154        2.6407545658       39.1833501632  TIP3      1119            0.0000000000
     17157      1219  TIP3      H2             25.4573200547        3.2918245783       39.1179213707  TIP3      1119            0.0000000000
     17158      1220  TIP3      OH2            25.7301598790        0.7863011816       24.2103510538  TIP3      1120            0.0000000000
     17159      1220  TIP3      H1             26.5454985207        1.3152985247       24.3545209963  TIP3      1120            0.0000000000
     17160      1220  TIP3      H2             25.7377711483        0.1846292899       24.9804019609  TIP3      1120            0.0000000000
     17161      1221  TIP3      OH2            26.3743163425       -1.1847511907       26.2067328693  TIP3      1121            0.0000000000
     17162      1221  TIP3      H1             25.6859476664       -1.8193933950       26.5336612087  TIP3      1121            0.0000000000
     17163      1221  TIP3      H2             26.9077411570       -1.0751956439       27.0237157770  TIP3      1121            0.0000000000
     17164      1222  TIP3      OH2            26.2205159826        1.6114522022       30.8618098610  TIP3      1122            0.0000000000
     17165      1222  TIP3      H1             26.8441922314        0.8985542779       30.6034619806  TIP3      1122            0.0000000000
     17166      1222  TIP3      H2             26.6006013828        2.4287087388       30.4937330082  TIP3      1122            0.0000000000
     17167      1223  TIP3      OH2            24.6089570250        4.3943960023       33.1145006535  TIP3      1123            0.0000000000
     17168      1223  TIP3      H1             23.8877935234        4.8383747797       33.5950967535  TIP3      1123            0.0000000000
     17169      1223  TIP3      H2             24.1668558713        4.0783188885       32.2949217454  TIP3      1123            0.0000000000
     17170      1224  TIP3      OH2            26.2461107622       -0.8225184446       22.1806003039  TIP3      1124            0.0000000000
     17171      1224  TIP3      H1             25.8457357894        0.0667981879       22.1771353779  TIP3      1124            0.0000000000
     17172      1224  TIP3      H2             26.5715739534       -0.8416622763       23.0917621424  TIP3      1124            0.0000000000
     17173      1225  TIP3      OH2            24.7033834786       -2.9015214812       27.1709515948  TIP3      1125            0.0000000000
     17174      1225  TIP3      H1             24.1374169806       -3.6066405026       26.7901046241  TIP3      1125            0.0000000000
     17175      1225  TIP3      H2             24.1602014025       -2.6471938754       27.9570815054  TIP3      1125            0.0000000000
     17176      1226  TIP3      OH2             9.2425376689       -0.3604237369       30.2457417118  TIP3      1126            0.0000000000
     17177      1226  TIP3      H1              9.3329590555       -0.5293427348       29.2855506536  TIP3      1126            0.0000000000
     17178      1226  TIP3      H2             10.0280194572       -0.8585340335       30.5812432541  TIP3      1126            0.0000000000
     17179      1227  TIP3      OH2            25.2252305867       -0.6888952037       36.2451292000  TIP3      1127            0.0000000000
     17180      1227  TIP3      H1             25.8837645451       -1.3820990070       36.4910587267  TIP3      1127            0.0000000000
     17181      1227  TIP3      H2             25.8036065259        0.1006757815       36.1645828206  TIP3      1127            0.0000000000
     17182      1228  TIP3      OH2            26.1280265903       -3.0929304663       36.9922257577  TIP3      1128            0.0000000000
     17183      1228  TIP3      H1             25.1887953065       -3.2532083625       36.7607467408  TIP3      1128            0.0000000000
     17184      1228  TIP3      H2             26.5206207663       -3.9827122833       36.8944325267  TIP3      1128            0.0000000000
     17185      1229  TIP3      OH2            23.5394639890       -6.5592637355       19.9421055321  TIP3      1129            0.0000000000
     17186      1229  TIP3      H1             24.1602290429       -7.2191956393       20.2922001337  TIP3      1129            0.0000000000
     17187      1229  TIP3      H2             22.7823406662       -6.6485929254       20.5382990165  TIP3      1129            0.0000000000
     17188      1230  TIP3      OH2            23.3122231067       -4.5244715199       25.6035026685  TIP3      1130            0.0000000000
     17189      1230  TIP3      H1             23.6445116941       -5.4511286198       25.6248052904  TIP3      1130            0.0000000000
     17190      1230  TIP3      H2             23.9651215769       -4.1559936958       24.9700717282  TIP3      1130            0.0000000000
     17191      1231  TIP3      OH2            24.1300743670       -4.4056924471       30.7472470466  TIP3      1131            0.0000000000
     17192      1231  TIP3      H1             25.0577174736       -4.5621543123       30.4687334919  TIP3      1131            0.0000000000
     17193      1231  TIP3      H2             24.3085659798       -4.2475638977       31.7045120773  TIP3      1131            0.0000000000
     17194      1232  TIP3      OH2            24.6653765860       -3.6435041814       33.3583737726  TIP3      1132            0.0000000000
     17195      1232  TIP3      H1             23.7780601035       -3.3912991653       33.7060395219  TIP3      1132            0.0000000000
     17196      1232  TIP3      H2             25.0896043034       -2.7697125372       33.2122598629  TIP3      1132            0.0000000000
     17197      1233  TIP3      OH2             8.6720307157       -5.3675427560       36.3385967021  TIP3      1133            0.0000000000
     17198      1233  TIP3      H1              9.5220068905       -5.3349403063       36.8422467827  TIP3      1133            0.0000000000
     17199      1233  TIP3      H2              8.3104826272       -6.2289889261       36.6316064187  TIP3      1133            0.0000000000
     17200      1234  TIP3      OH2            26.5990141109      -10.1160508086       38.3516579766  TIP3      1134            0.0000000000
     17201      1234  TIP3      H1             27.3587948863      -10.5907093567       37.9572823140  TIP3      1134            0.0000000000
     17202      1234  TIP3      H2             26.5799572361       -9.3928614222       37.6849362657  TIP3      1134            0.0000000000
     17203      1235  TIP3      OH2            24.3092772206       -7.0294148382       25.4193435294  TIP3      1135            0.0000000000
     17204      1235  TIP3      H1             24.6251161570       -7.6303749359       26.1349016415  TIP3      1135            0.0000000000
     17205      1235  TIP3      H2             23.8005669215       -7.6459009358       24.8747257540  TIP3      1135            0.0000000000
     17206      1236  TIP3      OH2             9.8603322360       -6.9109050310       30.2079856499  TIP3      1136            0.0000000000
     17207      1236  TIP3      H1             10.2538825381       -7.8159215864       30.1425952694  TIP3      1136            0.0000000000
     17208      1236  TIP3      H2             10.6589367745       -6.3403918312       30.2178632211  TIP3      1136            0.0000000000
     17209      1237  TIP3      OH2             8.2148295776       -4.0072530716       30.5792210223  TIP3      1137            0.0000000000
     17210      1237  TIP3      H1              8.5776957882       -4.8945884372       30.7423057419  TIP3      1137            0.0000000000
     17211      1237  TIP3      H2              8.9124696114       -3.6265654570       29.9947435211  TIP3      1137            0.0000000000
     17212      1238  TIP3      OH2            26.3136292022       -8.1788053784       36.5147418471  TIP3      1138            0.0000000000
     17213      1238  TIP3      H1             25.6069151926       -7.5263087652       36.6784859647  TIP3      1138            0.0000000000
     17214      1238  TIP3      H2             25.8915851754       -8.6305152859       35.7501848118  TIP3      1138            0.0000000000
     17215      1239  TIP3      OH2            26.0075084179       -7.4182563792       21.5203457572  TIP3      1139            0.0000000000
     17216      1239  TIP3      H1             26.2502844613       -7.5106735156       20.5790357455  TIP3      1139            0.0000000000
     17217      1239  TIP3      H2             26.6049651238       -6.7101486760       21.8413755583  TIP3      1139            0.0000000000
     17218      1240  TIP3      OH2             8.6433407706       -7.4422432793       24.8699920225  TIP3      1140            0.0000000000
     17219      1240  TIP3      H1              8.1066113856       -7.3930797591       25.6797373581  TIP3      1140            0.0000000000
     17220      1240  TIP3      H2              8.0393038371       -7.8256191938       24.2246798281  TIP3      1140            0.0000000000
     17221      1241  TIP3      OH2            23.3011896331        7.0215878822       26.7363215143  TIP3      1141            0.0000000000
     17222      1241  TIP3      H1             24.2621501625        7.1374705780       26.7142985761  TIP3      1141            0.0000000000
     17223      1241  TIP3      H2             23.0451041783        7.7168138377       27.3620835671  TIP3      1141            0.0000000000
     17224      1242  TIP3      OH2             8.6293088623       -9.3439033594       33.1070527253  TIP3      1142            0.0000000000
     17225      1242  TIP3      H1              7.9165567600       -9.5345264553       33.7460596911  TIP3      1142            0.0000000000
     17226      1242  TIP3      H2              8.4782766733       -8.4234578230       32.8469263487  TIP3      1142            0.0000000000
     17227      1243  TIP3      OH2            11.1621355428        4.1774111324       37.6565028928  TIP3      1143            0.0000000000
     17228      1243  TIP3      H1             10.2460682602        4.4261167433       37.4862657889  TIP3      1143            0.0000000000
     17229      1243  TIP3      H2             11.1188429976        3.7601073292       38.5422538817  TIP3      1143            0.0000000000
     17230      1244  TIP3      OH2            13.7006349621        5.8433297506       34.1030905552  TIP3      1144            0.0000000000
     17231      1244  TIP3      H1             13.6536389253        6.5889152194       33.4705740513  TIP3      1144            0.0000000000
     17232      1244  TIP3      H2             14.5685552798        5.4715001212       33.8535089801  TIP3      1144            0.0000000000
     17233      1245  TIP3      OH2            17.7375642617        6.5708573431       36.3847922284  TIP3      1145            0.0000000000
     17234      1245  TIP3      H1             17.9791104112        6.2337771562       37.2699551738  TIP3      1145            0.0000000000
     17235      1245  TIP3      H2             18.5577238377        7.0388188961       36.1253660683  TIP3      1145            0.0000000000
     17236      1246  TIP3      OH2            19.8640537156        8.2136966966       35.6953047645  TIP3      1146            0.0000000000
     17237      1246  TIP3      H1             20.7383232848        8.0167127859       35.3393803657  TIP3      1146            0.0000000000
     17238      1246  TIP3      H2             20.0874447569        8.5730334544       36.5735535144  TIP3      1146            0.0000000000
     17239      1247  TIP3      OH2            24.9829838172       -9.7949054174       34.7514962790  TIP3      1147            0.0000000000
     17240      1247  TIP3      H1             24.1439338180       -9.6649882846       34.2845587125  TIP3      1147            0.0000000000
     17241      1247  TIP3      H2             25.2189915891      -10.7074380005       34.4584767599  TIP3      1147            0.0000000000
     17242      1248  TIP3      OH2            10.9197476176        8.3625550514       33.3699204523  TIP3      1148            0.0000000000
     17243      1248  TIP3      H1             10.0981722243        8.8216954724       33.1053734050  TIP3      1148            0.0000000000
     17244      1248  TIP3      H2             10.9080150458        8.4617671992       34.3386931220  TIP3      1148            0.0000000000
     17245      1249  TIP3      OH2            13.4305304152        8.0477387697       32.4737005264  TIP3      1149            0.0000000000
     17246      1249  TIP3      H1             12.4993886337        8.1659900864       32.7889988282  TIP3      1149            0.0000000000
     17247      1249  TIP3      H2             13.4963171115        8.7745999421       31.8216550743  TIP3      1149            0.0000000000
     17248      1250  TIP3      OH2            17.9188022487        7.6093503387       31.7796548207  TIP3      1150            0.0000000000
     17249      1250  TIP3      H1             17.0784643700        8.1004671738       31.8463754859  TIP3      1150            0.0000000000
     17250      1250  TIP3      H2             18.4759554679        8.2293818457       32.3052804440  TIP3      1150            0.0000000000
     17251      1251  TIP3      OH2            20.0652540377        6.2360456397       33.0903325378  TIP3      1151            0.0000000000
     17252      1251  TIP3      H1             19.4468926756        6.5938065446       32.4286427119  TIP3      1151            0.0000000000
     17253      1251  TIP3      H2             20.8434439339        6.8012220807       32.9127050425  TIP3      1151            0.0000000000
     17254      1252  TIP3      OH2            22.4892749028        7.7383605004       32.8105222981  TIP3      1152            0.0000000000
     17255      1252  TIP3      H1             22.6738306580        8.6268794965       32.4572186130  TIP3      1152            0.0000000000
     17256      1252  TIP3      H2             22.9424074827        7.1925185639       32.1149528031  TIP3      1152            0.0000000000
     17257      1253  TIP3      OH2            10.4176957227        6.6782853107       30.3949193363  TIP3      1153            0.0000000000
     17258      1253  TIP3      H1             10.2192665344        6.3814960578       31.3090342764  TIP3      1153            0.0000000000
     17259      1253  TIP3      H2             11.3767106972        6.4845862964       30.3184962047  TIP3      1153            0.0000000000
     17260      1254  TIP3      OH2            12.7850683948        6.1480166774       29.0247061329  TIP3      1154            0.0000000000
     17261      1254  TIP3      H1             12.6459081540        5.1850697723       29.0570789411  TIP3      1154            0.0000000000
     17262      1254  TIP3      H2             13.5788463621        6.1854988314       29.6023072935  TIP3      1154            0.0000000000
     17263      1255  TIP3      OH2            14.8351799417        5.8719197294       30.6954100874  TIP3      1155            0.0000000000
     17264      1255  TIP3      H1             15.2270912518        5.0172324426       30.4356521893  TIP3      1155            0.0000000000
     17265      1255  TIP3      H2             15.0597044430        5.8731388857       31.6431830803  TIP3      1155            0.0000000000
     17266      1256  TIP3      OH2            18.2151797414       -8.9304610050       29.1929847797  TIP3      1156            0.0000000000
     17267      1256  TIP3      H1             17.4002802473       -9.3860528142       29.4920658580  TIP3      1156            0.0000000000
     17268      1256  TIP3      H2             18.2282531424       -9.1608575844       28.2467474773  TIP3      1156            0.0000000000
     17269      1257  TIP3      OH2            23.5422583268      -10.1130276813       29.0010384377  TIP3      1157            0.0000000000
     17270      1257  TIP3      H1             24.1893011990       -9.5323495857       28.5394729450  TIP3      1157            0.0000000000
     17271      1257  TIP3      H2             22.6980323820       -9.7919739508       28.6235250194  TIP3      1157            0.0000000000
     17272      1258  TIP3      OH2            25.1950578759       -8.8665221747       27.3083129285  TIP3      1158            0.0000000000
     17273      1258  TIP3      H1             25.7526658648       -9.6212031363       27.0003311393  TIP3      1158            0.0000000000
     17274      1258  TIP3      H2             25.8852822002       -8.1979406495       27.5442819281  TIP3      1158            0.0000000000
     17275      1259  TIP3      OH2            10.8333965125       -9.5025523086       26.9883401718  TIP3      1159            0.0000000000
     17276      1259  TIP3      H1              9.8685099903       -9.4718251904       26.8824300788  TIP3      1159            0.0000000000
     17277      1259  TIP3      H2             11.0509291745      -10.3738017421       26.5827563859  TIP3      1159            0.0000000000
     17278      1260  TIP3      OH2            15.1777892792      -10.0894784908       26.8586691027  TIP3      1160            0.0000000000
     17279      1260  TIP3      H1             15.9567254592       -9.7631324476       26.3895515732  TIP3      1160            0.0000000000
     17280      1260  TIP3      H2             15.4219073027      -10.0247892452       27.7925310447  TIP3      1160            0.0000000000
     17281      1261  TIP3      OH2            21.0583334396       -9.4813357907       27.9970754301  TIP3      1161            0.0000000000
     17282      1261  TIP3      H1             20.4849293286       -9.1506663552       27.2933315500  TIP3      1161            0.0000000000
     17283      1261  TIP3      H2             20.4471510922      -10.0835915317       28.4780786765  TIP3      1161            0.0000000000
     17284      1262  TIP3      OH2            23.1035104184      -10.0592135285       24.3053141445  TIP3      1162            0.0000000000
     17285      1262  TIP3      H1             22.4414441791       -9.3622745332       24.3723260146  TIP3      1162            0.0000000000
     17286      1262  TIP3      H2             22.5000805403      -10.8206059666       24.2073639008  TIP3      1162            0.0000000000
     17287      1263  TIP3      OH2             9.6003778851        5.7325220823       23.3714571288  TIP3      1163            0.0000000000
     17288      1263  TIP3      H1              8.9951153286        5.1107733003       22.9018453822  TIP3      1163            0.0000000000
     17289      1263  TIP3      H2              9.7411041512        6.3678501904       22.6501716050  TIP3      1163            0.0000000000
     17290      1264  TIP3      OH2            18.2600600694        8.4401050466       21.9126134013  TIP3      1164            0.0000000000
     17291      1264  TIP3      H1             18.9510151018        8.1299523211       21.3249436353  TIP3      1164            0.0000000000
     17292      1264  TIP3      H2             17.9293879963        7.5840142258       22.2488450521  TIP3      1164            0.0000000000
     17293      1265  TIP3      OH2            25.4663927116        6.7937258956       24.4974103482  TIP3      1165            0.0000000000
     17294      1265  TIP3      H1             25.1372759351        5.9693347163       24.0541747891  TIP3      1165            0.0000000000
     17295      1265  TIP3      H2             24.6886228072        7.3750508595       24.3861806583  TIP3      1165            0.0000000000
     17296      1266  TIP3      OH2            10.5121777832       -8.9732673773       36.0788825330  TIP3      1166            0.0000000000
     17297      1266  TIP3      H1              9.9070846255       -9.6956430378       36.3398623535  TIP3      1166            0.0000000000
     17298      1266  TIP3      H2             11.2808441030       -9.1281534105       36.6593386025  TIP3      1166            0.0000000000
     17299      1267  TIP3      OH2            12.6677888573       -9.4177403921       38.2843876813  TIP3      1167            0.0000000000
     17300      1267  TIP3      H1             13.5093863234       -9.8318283840       38.0144897067  TIP3      1167            0.0000000000
     17301      1267  TIP3      H2             12.2708241125      -10.1547282865       38.8113411656  TIP3      1167            0.0000000000
     17302      1268  TIP3      OH2            21.0909739839      -10.4089649125       38.5767479711  TIP3      1168            0.0000000000
     17303      1268  TIP3      H1             21.2531677071      -10.8490053274       39.4357276532  TIP3      1168            0.0000000000
     17304      1268  TIP3      H2             21.9862789575      -10.4436725449       38.1769153712  TIP3      1168            0.0000000000
     17305      1269  TIP3      OH2            24.5538390038        5.6364216924       36.8413586263  TIP3      1169            0.0000000000
     17306      1269  TIP3      H1             23.9519465222        5.6489564881       36.0588448038  TIP3      1169            0.0000000000
     17307      1269  TIP3      H2             24.4162127241        6.5445252436       37.1686936566  TIP3      1169            0.0000000000
     17308      1270  TIP3      OH2            27.6021853520       -3.8924824658       25.5006328772  TIP3      1170            0.0000000000
     17309      1270  TIP3      H1             27.4559897843       -3.2185379149       26.1807110378  TIP3      1170            0.0000000000
     17310      1270  TIP3      H2             26.7128335397       -4.2536792383       25.4142597955  TIP3      1170            0.0000000000
     17311      1271  TIP3      OH2            28.3179331422       -1.1058172140       28.0934847215  TIP3      1171            0.0000000000
     17312      1271  TIP3      H1             28.4518126582       -2.0715520935       28.1717688665  TIP3      1171            0.0000000000
     17313      1271  TIP3      H2             29.2595431452       -0.8379453343       28.0804137771  TIP3      1171            0.0000000000
     17314      1272  TIP3      OH2            28.7034316297       -3.9711215520       28.4995047377  TIP3      1172            0.0000000000
     17315      1272  TIP3      H1             29.0584393531       -3.7409703111       29.3848264765  TIP3      1172            0.0000000000
     17316      1272  TIP3      H2             29.2810797743       -4.7263744289       28.2924579154  TIP3      1172            0.0000000000
     17317      1273  TIP3      OH2            28.1037408298        2.0205463321       24.4772354099  TIP3      1173            0.0000000000
     17318      1273  TIP3      H1             28.1415801073        2.2918415888       23.5280893093  TIP3      1173            0.0000000000
     17319      1273  TIP3      H2             28.1205853282        2.8846198362       24.9370941390  TIP3      1173            0.0000000000
     17320      1274  TIP3      OH2            27.7488017232        0.9130366535       33.6834047714  TIP3      1174            0.0000000000
     17321      1274  TIP3      H1             27.2569862476        0.7712470317       32.8510434303  TIP3      1174            0.0000000000
     17322      1274  TIP3      H2             28.0698277119        0.0241575147       33.8942083105  TIP3      1174            0.0000000000
     17323      1275  TIP3      OH2            27.3178187149        4.1279130624       30.1166789876  TIP3      1175            0.0000000000
     17324      1275  TIP3      H1             28.2835938913        4.0316710940       29.9864575250  TIP3      1175            0.0000000000
     17325      1275  TIP3      H2             27.2732905724        4.6509159782       30.9408692174  TIP3      1175            0.0000000000
     17326      1276  TIP3      OH2            27.1165985238       -6.9294260445       27.5639509525  TIP3      1176            0.0000000000
     17327      1276  TIP3      H1             27.5979101375       -6.9492855029       28.4178171958  TIP3      1176            0.0000000000
     17328      1276  TIP3      H2             27.6676812878       -6.2856841541       27.0976902944  TIP3      1176            0.0000000000
     17329      1277  TIP3      OH2            27.7471553975       -5.7696611819       22.8645735638  TIP3      1177            0.0000000000
     17330      1277  TIP3      H1             28.0818388473       -4.9619157796       22.4408416610  TIP3      1177            0.0000000000
     17331      1277  TIP3      H2             27.6809926339       -5.4668281243       23.7838832850  TIP3      1177            0.0000000000
     17332      1278  TIP3      OH2            27.9922107781       -2.4057428822       34.6507305824  TIP3      1178            0.0000000000
     17333      1278  TIP3      H1             27.4539275306       -2.5578470053       35.4496949696  TIP3      1178            0.0000000000
     17334      1278  TIP3      H2             27.3203284125       -2.3475595125       33.9368821848  TIP3      1178            0.0000000000
     17335      1279  TIP3      OH2            29.0000084972       -0.6233085822       21.5304749102  TIP3      1179            0.0000000000
     17336      1279  TIP3      H1             29.6111682230       -0.1808853214       22.1324696261  TIP3      1179            0.0000000000
     17337      1279  TIP3      H2             28.1189153095       -0.2780427852       21.7317032263  TIP3      1179            0.0000000000
     17338      1280  TIP3      OH2            28.6277772681        4.8341069178       32.7107942718  TIP3      1180            0.0000000000
     17339      1280  TIP3      H1             29.4640253032        4.5735466944       33.1065343975  TIP3      1180            0.0000000000
     17340      1280  TIP3      H2             27.9905781018        4.8691533835       33.4376884481  TIP3      1180            0.0000000000
     17341      1281  TIP3      OH2            29.0774551323       -3.3800408966       21.1605942066  TIP3      1181            0.0000000000
     17342      1281  TIP3      H1             29.0205942393       -2.5175966557       21.6146495704  TIP3      1181            0.0000000000
     17343      1281  TIP3      H2             29.4912157985       -3.0406594460       20.3320858096  TIP3      1181            0.0000000000
     17344      1282  TIP3      OH2            28.7280003129        4.6424862599       25.7831623371  TIP3      1182            0.0000000000
     17345      1282  TIP3      H1             28.2493652221        4.9773243781       26.5590728962  TIP3      1182            0.0000000000
     17346      1282  TIP3      H2             28.5878933952        5.3461626582       25.1028080852  TIP3      1182            0.0000000000
     17347      1283  TIP3      OH2            28.3422099706        7.3359014615       36.9703129421  TIP3      1183            0.0000000000
     17348      1283  TIP3      H1             29.3085613806        7.2531015829       36.9479574704  TIP3      1183            0.0000000000
     17349      1283  TIP3      H2             28.0519401015        6.4379599291       36.7492691097  TIP3      1183            0.0000000000
     17350      1284  TIP3      OH2            27.9906283553        0.6231552484       38.0524623444  TIP3      1184            0.0000000000
     17351      1284  TIP3      H1             27.7522977007       -0.3138808102       37.8997913857  TIP3      1184            0.0000000000
     17352      1284  TIP3      H2             27.5711857886        1.0704474637       37.2889043154  TIP3      1184            0.0000000000
     17353      1285  TIP3      OH2            28.7618811868       -2.2229295212       37.5228669162  TIP3      1185            0.0000000000
     17354      1285  TIP3      H1             29.0437236228       -3.0274144580       37.0621787324  TIP3      1185            0.0000000000
     17355      1285  TIP3      H2             29.4335579920       -2.1245861006       38.2170214741  TIP3      1185            0.0000000000
     17356      1286  TIP3      OH2            28.4036227806        2.2820746510       21.8327858337  TIP3      1186            0.0000000000
     17357      1286  TIP3      H1             28.7677150319        3.0883226276       21.3908007231  TIP3      1186            0.0000000000
     17358      1286  TIP3      H2             28.7193783257        1.6417941517       21.1781152414  TIP3      1186            0.0000000000
     17359      1287  TIP3      OH2            26.6359168054        7.7374445304       26.6710955186  TIP3      1187            0.0000000000
     17360      1287  TIP3      H1             26.1950633702        7.2551567850       25.9347465057  TIP3      1187            0.0000000000
     17361      1287  TIP3      H2             27.0748925519        7.0070302987       27.1603277265  TIP3      1187            0.0000000000
     17362      1288  TIP3      OH2            27.8402252960        6.0639506622       28.3403082722  TIP3      1188            0.0000000000
     17363      1288  TIP3      H1             27.5370545171        5.2898468574       28.8732751171  TIP3      1188            0.0000000000
     17364      1288  TIP3      H2             28.2125080029        6.6242597724       29.0515007714  TIP3      1188            0.0000000000
     17365      1289  TIP3      OH2            27.9207646303       -0.4619424636       30.8021361677  TIP3      1189            0.0000000000
     17366      1289  TIP3      H1             28.0591128123       -0.7362858771       29.8702647345  TIP3      1189            0.0000000000
     17367      1289  TIP3      H2             28.8630115050       -0.4576749569       31.1046350015  TIP3      1189            0.0000000000
     17368      1290  TIP3      OH2            27.2480008443       -5.6043520373       36.1392269227  TIP3      1190            0.0000000000
     17369      1290  TIP3      H1             28.1910205403       -5.4453234287       35.9412207791  TIP3      1190            0.0000000000
     17370      1290  TIP3      H2             27.2611016288       -6.5509065582       36.3967489841  TIP3      1190            0.0000000000
     17371      1291  TIP3      OH2            28.3793456453       -7.0117688926       30.0264411240  TIP3      1191            0.0000000000
     17372      1291  TIP3      H1             28.6293219416       -7.9424704568       29.9792242057  TIP3      1191            0.0000000000
     17373      1291  TIP3      H2             29.2469422227       -6.5958508590       30.1690760936  TIP3      1191            0.0000000000
     17374      1292  TIP3      OH2            26.7548579995       -4.0499788100       30.4807337957  TIP3      1192            0.0000000000
     17375      1292  TIP3      H1             27.0591089124       -3.9874735061       29.5589041558  TIP3      1192            0.0000000000
     17376      1292  TIP3      H2             27.5937840254       -4.0183373985       30.9675948596  TIP3      1192            0.0000000000
     17377      1293  TIP3      OH2            27.2465374991       -8.3582635876       24.2994358449  TIP3      1193            0.0000000000
     17378      1293  TIP3      H1             26.7539776059       -7.8877051029       24.9865702508  TIP3      1193            0.0000000000
     17379      1293  TIP3      H2             26.8291733554       -8.0403455052       23.4762611547  TIP3      1193            0.0000000000
     17380      1294  TIP3      OH2            26.9769441211       -9.1676034347       33.0305197315  TIP3      1194            0.0000000000
     17381      1294  TIP3      H1             26.3566805841       -9.3817742076       33.7578951048  TIP3      1194            0.0000000000
     17382      1294  TIP3      H2             26.4786811014       -8.5376546663       32.4948636035  TIP3      1194            0.0000000000
     17383      1295  TIP3      OH2           -29.8769465525        7.3391022025       30.7769392529  TIP3      1195            0.0000000000
     17384      1295  TIP3      H1            -29.8945346516        7.5968318036       31.7218925595  TIP3      1195            0.0000000000
     17385      1295  TIP3      H2            -28.9069498400        7.2476083103       30.6252915930  TIP3      1195            0.0000000000
     17386      1296  TIP3      OH2            28.4530254990        6.0463060708       23.4473784535  TIP3      1196            0.0000000000
     17387      1296  TIP3      H1             28.1232363163        5.4764533332       22.7421926184  TIP3      1196            0.0000000000
     17388      1296  TIP3      H2             27.7588540450        6.7119311967       23.5189544803  TIP3      1196            0.0000000000
     17389      1297  TIP3      OH2           -17.2844529786       18.5225722449       26.7018575056  TIP3      1197            0.0000000000
     17390      1297  TIP3      H1            -17.1532607316       19.2338937696       27.3580521971  TIP3      1197            0.0000000000
     17391      1297  TIP3      H2            -18.0648789938       18.8652705822       26.2439162271  TIP3      1197            0.0000000000
     17392      1298  TIP3      OH2           -18.5264012780       17.2615628978       30.0363299040  TIP3      1198            0.0000000000
     17393      1298  TIP3      H1            -18.6034080580       16.8318866589       30.9109610514  TIP3      1198            0.0000000000
     17394      1298  TIP3      H2            -19.2618360679       16.8384371087       29.5490053979  TIP3      1198            0.0000000000
     17395      1299  TIP3      OH2           -26.0612884369       17.2927695915       31.6433458579  TIP3      1199            0.0000000000
     17396      1299  TIP3      H1            -26.1893603243       16.4260207041       32.0710162074  TIP3      1199            0.0000000000
     17397      1299  TIP3      H2            -25.5308096697       17.7499985778       32.3224932261  TIP3      1199            0.0000000000
     17398      1300  TIP3      OH2           -15.4865604371       20.4911713785       28.5958515777  TIP3      1200            0.0000000000
     17399      1300  TIP3      H1            -15.4970708060       19.8513415532       29.3250173615  TIP3      1200            0.0000000000
     17400      1300  TIP3      H2            -15.3481973812       21.3229321878       29.1020106159  TIP3      1200            0.0000000000
     17401      1301  TIP3      OH2           -25.9232304656       21.9135839371       30.0607540918  TIP3      1201            0.0000000000
     17402      1301  TIP3      H1            -26.0015348882       20.9483770859       29.8619992432  TIP3      1201            0.0000000000
     17403      1301  TIP3      H2            -24.9569638549       21.9260711960       30.0903609169  TIP3      1201            0.0000000000
     17404      1302  TIP3      OH2           -28.6527617481       15.5294601036       25.9423677331  TIP3      1202            0.0000000000
     17405      1302  TIP3      H1            -29.2581603876       16.2419258077       26.1625953100  TIP3      1202            0.0000000000
     17406      1302  TIP3      H2            -29.3198551272       14.8486070975       25.7506958800  TIP3      1202            0.0000000000
     17407      1303  TIP3      OH2           -28.1917139190       17.7132164065       28.4786076798  TIP3      1203            0.0000000000
     17408      1303  TIP3      H1            -27.7426906277       16.8512278281       28.6794087751  TIP3      1203            0.0000000000
     17409      1303  TIP3      H2            -27.6059798863       18.0515198096       27.7885403636  TIP3      1203            0.0000000000
     17410      1304  TIP3      OH2           -18.1764895159       25.6560574699       28.6096389245  TIP3      1204            0.0000000000
     17411      1304  TIP3      H1            -17.4038794881       25.1299706899       28.2889762547  TIP3      1204            0.0000000000
     17412      1304  TIP3      H2            -18.4453286818       25.0949537262       29.3498722864  TIP3      1204            0.0000000000
     17413      1305  TIP3      OH2           -20.6934882432       20.7243074184       31.1237041745  TIP3      1205            0.0000000000
     17414      1305  TIP3      H1            -20.4398052123       20.2534726290       30.3202097196  TIP3      1205            0.0000000000
     17415      1305  TIP3      H2            -19.8223806546       20.8076447258       31.5711802155  TIP3      1205            0.0000000000
     17416      1306  TIP3      OH2           -12.0661656243       11.6593767961       30.9687778251  TIP3      1206            0.0000000000
     17417      1306  TIP3      H1            -11.9541559326       12.0815579807       31.8509228744  TIP3      1206            0.0000000000
     17418      1306  TIP3      H2            -11.1484785828       11.6949935488       30.6443993220  TIP3      1206            0.0000000000
     17419      1307  TIP3      OH2           -16.7681409090       14.5761979270       31.3691743590  TIP3      1207            0.0000000000
     17420      1307  TIP3      H1            -16.7656121359       13.6430334191       31.6396085688  TIP3      1207            0.0000000000
     17421      1307  TIP3      H2            -16.7673965388       14.4605162286       30.3988640834  TIP3      1207            0.0000000000
     17422      1308  TIP3      OH2           -24.0945558078       12.3054362870       28.2101243877  TIP3      1208            0.0000000000
     17423      1308  TIP3      H1            -23.9317981139       13.1063167610       27.6715744133  TIP3      1208            0.0000000000
     17424      1308  TIP3      H2            -24.5323549627       11.7617310363       27.5136805881  TIP3      1208            0.0000000000
     17425      1309  TIP3      OH2           -16.4322742088       12.7469343837       27.0614614812  TIP3      1209            0.0000000000
     17426      1309  TIP3      H1            -15.9085499304       12.2849124380       27.7600411599  TIP3      1209            0.0000000000
     17427      1309  TIP3      H2            -15.8192670047       13.4682041543       26.8735657343  TIP3      1209            0.0000000000
     17428      1310  TIP3      OH2           -26.6953176261       15.4287303254       28.9273426420  TIP3      1210            0.0000000000
     17429      1310  TIP3      H1            -26.6452262946       14.9957512879       29.7990537036  TIP3      1210            0.0000000000
     17430      1310  TIP3      H2            -26.7743790775       14.6683143564       28.3203901287  TIP3      1210            0.0000000000
     17431      1311  TIP3      OH2           -22.8976930070       16.2662057029       28.3269947227  TIP3      1211            0.0000000000
     17432      1311  TIP3      H1            -21.9906333436       15.9666512764       28.1261295186  TIP3      1211            0.0000000000
     17433      1311  TIP3      H2            -23.4237334315       15.6242876111       27.8027725897  TIP3      1211            0.0000000000
     17434      1312  TIP3      OH2           -11.7913651901       12.8023263148       33.4466363544  TIP3      1212            0.0000000000
     17435      1312  TIP3      H1            -12.1370588870       13.6861004153       33.1537421779  TIP3      1212            0.0000000000
     17436      1312  TIP3      H2            -11.2875215437       13.0577493935       34.2351718088  TIP3      1212            0.0000000000
     17437      1313  TIP3      OH2           -25.0141996594       11.4168174925       32.1708045888  TIP3      1213            0.0000000000
     17438      1313  TIP3      H1            -25.4768277325       12.0845060354       31.5982369859  TIP3      1213            0.0000000000
     17439      1313  TIP3      H2            -25.4749991210       11.5597877306       33.0225200811  TIP3      1213            0.0000000000
     17440      1314  TIP3      OH2           -18.4714306706       21.2784192759       25.7847865815  TIP3      1214            0.0000000000
     17441      1314  TIP3      H1            -18.9665944503       21.6031050584       25.0203120902  TIP3      1214            0.0000000000
     17442      1314  TIP3      H2            -18.4206768045       22.1211621030       26.2765422218  TIP3      1214            0.0000000000
     17443      1315  TIP3      OH2           -22.7927860132       19.2497266422       32.2572412211  TIP3      1215            0.0000000000
     17444      1315  TIP3      H1            -23.5359528443       19.8797402148       32.4054506982  TIP3      1215            0.0000000000
     17445      1315  TIP3      H2            -22.0947526430       19.8615358575       31.9333199524  TIP3      1215            0.0000000000
     17446      1316  TIP3      OH2           -14.5701349593       12.2057070094       28.8617556702  TIP3      1216            0.0000000000
     17447      1316  TIP3      H1            -14.2125797713       11.5043846770       29.4117951819  TIP3      1216            0.0000000000
     17448      1316  TIP3      H2            -13.8265783000       12.8266004439       28.8437166113  TIP3      1216            0.0000000000
     17449      1317  TIP3      OH2           -25.5858563984       13.4499363806       30.5607390644  TIP3      1217            0.0000000000
     17450      1317  TIP3      H1            -24.8234741907       14.0139287921       30.8158759397  TIP3      1217            0.0000000000
     17451      1317  TIP3      H2            -25.2798697212       13.0345968705       29.7346231427  TIP3      1217            0.0000000000
     17452      1318  TIP3      OH2           -24.3150306384       21.3729556176       32.9687702524  TIP3      1218            0.0000000000
     17453      1318  TIP3      H1            -24.3927556917       22.0919022720       32.3367097154  TIP3      1218            0.0000000000
     17454      1318  TIP3      H2            -25.1743962222       21.4505896501       33.4508950412  TIP3      1218            0.0000000000
     17455      1319  TIP3      OH2           -14.8936283800       22.4853412528       30.3354112822  TIP3      1219            0.0000000000
     17456      1319  TIP3      H1            -15.7560714813       22.6623404411       30.7739468431  TIP3      1219            0.0000000000
     17457      1319  TIP3      H2            -14.7536721486       23.3147096769       29.8713197772  TIP3      1219            0.0000000000
     17458      1320  TIP3      OH2           -14.8254317120       10.9227726239       32.1888839476  TIP3      1220            0.0000000000
     17459      1320  TIP3      H1            -15.5975250024       11.1264676250       31.6212600522  TIP3      1220            0.0000000000
     17460      1320  TIP3      H2            -14.0840737338       11.3025782357       31.6925214277  TIP3      1220            0.0000000000
     17461      1321  TIP3      OH2           -21.7950260536        8.8661329339       29.7709930661  TIP3      1221            0.0000000000
     17462      1321  TIP3      H1            -22.1013708293        7.9517117791       29.7921702143  TIP3      1221            0.0000000000
     17463      1321  TIP3      H2            -22.6377252841        9.3420146144       30.0040892543  TIP3      1221            0.0000000000
     17464      1322  TIP3      OH2           -16.1276248609       24.2750654903       27.6010433918  TIP3      1222            0.0000000000
     17465      1322  TIP3      H1            -15.9977707095       23.5097195306       27.0062774563  TIP3      1222            0.0000000000
     17466      1322  TIP3      H2            -15.6670639623       24.9655705733       27.0700741756  TIP3      1222            0.0000000000
     17467      1323  TIP3      OH2           -15.0810543354       22.1674108747       26.1004445440  TIP3      1223            0.0000000000
     17468      1323  TIP3      H1            -15.0965534432       21.6127396121       25.3055898889  TIP3      1223            0.0000000000
     17469      1323  TIP3      H2            -15.2220203566       21.4926917174       26.7942864825  TIP3      1223            0.0000000000
     17470      1324  TIP3      OH2           -13.6801766177       20.6957938091       34.6935257889  TIP3      1224            0.0000000000
     17471      1324  TIP3      H1            -13.3719290263       20.0146773726       34.0471941501  TIP3      1224            0.0000000000
     17472      1324  TIP3      H2            -13.5809414798       21.4955748878       34.1413321362  TIP3      1224            0.0000000000
     17473      1325  TIP3      OH2           -11.4932145778       17.2399465883       32.3779350997  TIP3      1225            0.0000000000
     17474      1325  TIP3      H1            -12.1496520070       17.9582892992       32.5109636296  TIP3      1225            0.0000000000
     17475      1325  TIP3      H2            -10.9961395129       17.6130275913       31.6193080406  TIP3      1225            0.0000000000
     17476      1326  TIP3      OH2           -14.9061187841       17.8599544950       25.3092407866  TIP3      1226            0.0000000000
     17477      1326  TIP3      H1            -15.6270341940       18.0772170243       25.9412375590  TIP3      1226            0.0000000000
     17478      1326  TIP3      H2            -14.2877733340       17.3997887301       25.9168803788  TIP3      1226            0.0000000000
     17479      1327  TIP3      OH2           -15.3160848300       16.1050351547       34.4004929801  TIP3      1227            0.0000000000
     17480      1327  TIP3      H1            -15.4077230685       17.0218166168       34.7057622162  TIP3      1227            0.0000000000
     17481      1327  TIP3      H2            -16.0639416723       16.0668692528       33.7819846139  TIP3      1227            0.0000000000
     17482      1328  TIP3      OH2           -23.6656139218       18.5885267905       27.2395441292  TIP3      1228            0.0000000000
     17483      1328  TIP3      H1            -24.2211654728       18.2648995381       26.5020606202  TIP3      1228            0.0000000000
     17484      1328  TIP3      H2            -23.3257723815       17.7394996881       27.5922531717  TIP3      1228            0.0000000000
     17485      1329  TIP3      OH2           -22.6723951276       21.9871829757       29.9901568909  TIP3      1229            0.0000000000
     17486      1329  TIP3      H1            -22.5164276946       21.9419090925       29.0276445542  TIP3      1229            0.0000000000
     17487      1329  TIP3      H2            -21.8475281738       21.5900523875       30.3563195261  TIP3      1229            0.0000000000
     17488      1330  TIP3      OH2           -23.4261210771       17.0433959975       30.8122342651  TIP3      1230            0.0000000000
     17489      1330  TIP3      H1            -23.2167108008       17.0673461628       29.8545522723  TIP3      1230            0.0000000000
     17490      1330  TIP3      H2            -22.9983743483       17.8439059534       31.1653987525  TIP3      1230            0.0000000000
     17491      1331  TIP3      OH2           -17.1282131376       22.9051983724       31.6967055617  TIP3      1231            0.0000000000
     17492      1331  TIP3      H1            -17.3201455416       23.4807986456       32.4581210385  TIP3      1231            0.0000000000
     17493      1331  TIP3      H2            -17.3481740146       22.0220102162       32.0470697904  TIP3      1231            0.0000000000
     17494      1332  TIP3      OH2           -22.7284085918       21.6681774615       35.1311950121  TIP3      1232            0.0000000000
     17495      1332  TIP3      H1            -23.4160356331       22.1889603454       35.6003661238  TIP3      1232            0.0000000000
     17496      1332  TIP3      H2            -23.1970201130       21.4579143353       34.2883543211  TIP3      1232            0.0000000000
     17497      1333  TIP3      OH2           -16.3553420120       17.2952895053       23.1460652565  TIP3      1233            0.0000000000
     17498      1333  TIP3      H1            -16.0056806561       17.3753710659       24.0592324842  TIP3      1233            0.0000000000
     17499      1333  TIP3      H2            -15.6971883275       17.8174829700       22.6799635745  TIP3      1233            0.0000000000
     17500      1334  TIP3      OH2           -25.7158127071       17.9922689794       34.3331014979  TIP3      1234            0.0000000000
     17501      1334  TIP3      H1            -25.9720616558       18.8449636141       34.7329005966  TIP3      1234            0.0000000000
     17502      1334  TIP3      H2            -26.5282365380       17.4619970057       34.4913314702  TIP3      1234            0.0000000000
     17503      1335  TIP3      OH2           -18.9990825607       24.1039621324       26.1669683567  TIP3      1235            0.0000000000
     17504      1335  TIP3      H1            -18.7594633344       24.7398696493       26.8592431729  TIP3      1235            0.0000000000
     17505      1335  TIP3      H2            -19.5512048793       24.6376739018       25.5768922491  TIP3      1235            0.0000000000
     17506      1336  TIP3      OH2           -24.4408319667       23.4794390716       36.4049733400  TIP3      1236            0.0000000000
     17507      1336  TIP3      H1            -24.6370166180       23.8814380308       35.5318254616  TIP3      1236            0.0000000000
     17508      1336  TIP3      H2            -25.3495242214       23.2775320994       36.7044194278  TIP3      1236            0.0000000000
     17509      1337  TIP3      OH2           -12.6578660073        8.6462173977       23.1310163075  TIP3      1237            0.0000000000
     17510      1337  TIP3      H1            -13.6320284111        8.7971539997       23.1974470001  TIP3      1237            0.0000000000
     17511      1337  TIP3      H2            -12.4189917748        9.4196985995       22.5836316374  TIP3      1237            0.0000000000
     17512      1338  TIP3      OH2           -25.3299638158       17.4458071134       25.1542316232  TIP3      1238            0.0000000000
     17513      1338  TIP3      H1            -26.0638234807       17.8085747483       24.6380741104  TIP3      1238            0.0000000000
     17514      1338  TIP3      H2            -25.3793971632       16.5040399695       24.9195292000  TIP3      1238            0.0000000000
     17515      1339  TIP3      OH2           -28.5696628388       20.1267907436       34.1027788600  TIP3      1239            0.0000000000
     17516      1339  TIP3      H1            -29.5291504514       20.0611678643       33.9014624706  TIP3      1239            0.0000000000
     17517      1339  TIP3      H2            -28.2056307375       19.3794099554       33.6044213883  TIP3      1239            0.0000000000
     17518      1340  TIP3      OH2           -28.5555844522       22.8653517489       29.6810421022  TIP3      1240            0.0000000000
     17519      1340  TIP3      H1            -27.7422364998       22.3207367729       29.6961693466  TIP3      1240            0.0000000000
     17520      1340  TIP3      H2            -28.6002718185       23.1279919774       30.6058957967  TIP3      1240            0.0000000000
     17521      1341  TIP3      OH2           -10.9364832813       23.4604543960       35.9221875511  TIP3      1241            0.0000000000
     17522      1341  TIP3      H1            -11.0733135385       22.5056228262       36.0254328989  TIP3      1241            0.0000000000
     17523      1341  TIP3      H2            -11.7448735626       23.8055184207       36.3686377967  TIP3      1241            0.0000000000
     17524      1342  TIP3      OH2           -20.1611874435       22.8271970916       35.2490301953  TIP3      1242            0.0000000000
     17525      1342  TIP3      H1            -20.0818709979       23.6457646878       35.7768323738  TIP3      1242            0.0000000000
     17526      1342  TIP3      H2            -21.1009366427       22.5623929952       35.3625241741  TIP3      1242            0.0000000000
     17527      1343  TIP3      OH2           -19.5876464017       26.7691189772       24.6824813230  TIP3      1243            0.0000000000
     17528      1343  TIP3      H1            -19.5302101691       27.0145269659       23.7532004041  TIP3      1243            0.0000000000
     17529      1343  TIP3      H2            -19.5002067184       27.6478571273       25.1300681920  TIP3      1243            0.0000000000
     17530      1344  TIP3      OH2           -25.7672214829       25.5183433253       26.7696843985  TIP3      1244            0.0000000000
     17531      1344  TIP3      H1            -25.6700161123       25.2310104503       27.7022921794  TIP3      1244            0.0000000000
     17532      1344  TIP3      H2            -26.6011482224       25.0740269179       26.5156678803  TIP3      1244            0.0000000000
     17533      1345  TIP3      OH2           -16.7684383321       25.9508092624       24.1199857820  TIP3      1245            0.0000000000
     17534      1345  TIP3      H1            -17.6605830334       25.8520115455       24.4976241364  TIP3      1245            0.0000000000
     17535      1345  TIP3      H2            -16.4717634710       25.0330926826       24.0790172172  TIP3      1245            0.0000000000
     17536      1346  TIP3      OH2           -13.7963169234       14.7420907367       36.5439113997  TIP3      1246            0.0000000000
     17537      1346  TIP3      H1            -14.3605134803       15.1706910702       35.8674464047  TIP3      1246            0.0000000000
     17538      1346  TIP3      H2            -13.8896991038       13.8009247501       36.3061479700  TIP3      1246            0.0000000000
     17539      1347  TIP3      OH2           -26.4885963938       21.5438359128       34.5694944481  TIP3      1247            0.0000000000
     17540      1347  TIP3      H1            -26.2585145319       21.0566300358       35.3962375083  TIP3      1247            0.0000000000
     17541      1347  TIP3      H2            -27.3780670239       21.1320452941       34.4026310454  TIP3      1247            0.0000000000
     17542      1348  TIP3      OH2           -24.0297623301        9.7164869865       30.5921562837  TIP3      1248            0.0000000000
     17543      1348  TIP3      H1            -24.9029931954        9.6907595201       30.1486256885  TIP3      1248            0.0000000000
     17544      1348  TIP3      H2            -24.2242904936       10.3807820737       31.2924643585  TIP3      1248            0.0000000000
     17545      1349  TIP3      OH2           -18.9201893188        9.4580072745       33.7289995863  TIP3      1249            0.0000000000
     17546      1349  TIP3      H1            -18.6238491600        9.0466820921       34.5766211734  TIP3      1249            0.0000000000
     17547      1349  TIP3      H2            -19.8971980989        9.4813590317       33.8365087567  TIP3      1249            0.0000000000
     17548      1350  TIP3      OH2           -16.1886345489       13.3251156098       34.9971387598  TIP3      1250            0.0000000000
     17549      1350  TIP3      H1            -16.8704772739       13.0080686816       35.6373701580  TIP3      1250            0.0000000000
     17550      1350  TIP3      H2            -16.4363450713       14.2562665961       34.9092944089  TIP3      1250            0.0000000000
     17551      1351  TIP3      OH2           -23.5947788713       14.6188716517       31.8540672695  TIP3      1251            0.0000000000
     17552      1351  TIP3      H1            -24.3235829825       14.7250060418       32.5019691886  TIP3      1251            0.0000000000
     17553      1351  TIP3      H2            -23.5625116396       15.5322443259       31.4679322744  TIP3      1251            0.0000000000
     17554      1352  TIP3      OH2           -23.8226362903       14.4211939327       26.6043418044  TIP3      1252            0.0000000000
     17555      1352  TIP3      H1            -24.8133881834       14.4276352438       26.5407687721  TIP3      1252            0.0000000000
     17556      1352  TIP3      H2            -23.5849368767       14.1179821443       25.7058008816  TIP3      1252            0.0000000000
     17557      1353  TIP3      OH2           -17.8876805949       15.3111249940       25.5543381467  TIP3      1253            0.0000000000
     17558      1353  TIP3      H1            -18.0348256070       16.2143941445       25.2425974674  TIP3      1253            0.0000000000
     17559      1353  TIP3      H2            -17.2765836232       14.9571739469       24.8852916826  TIP3      1253            0.0000000000
     17560      1354  TIP3      OH2           -19.6697496109       15.8937587072       36.9970600894  TIP3      1254            0.0000000000
     17561      1354  TIP3      H1            -19.9998943520       15.0146558502       37.2939415092  TIP3      1254            0.0000000000
     17562      1354  TIP3      H2            -18.7361389111       15.8314074717       37.2483024270  TIP3      1254            0.0000000000
     17563      1355  TIP3      OH2           -16.9708619465       15.1250904182       28.4818597285  TIP3      1255            0.0000000000
     17564      1355  TIP3      H1            -17.3291974272       15.9854158698       28.2086057871  TIP3      1255            0.0000000000
     17565      1355  TIP3      H2            -17.2439611636       14.5732739402       27.7256044009  TIP3      1255            0.0000000000
     17566      1356  TIP3      OH2           -26.3769518299       14.6268847816       33.1198127248  TIP3      1256            0.0000000000
     17567      1356  TIP3      H1            -26.0822504987       14.9338578261       33.9880209301  TIP3      1256            0.0000000000
     17568      1356  TIP3      H2            -26.5809498311       13.6850007447       33.3062853943  TIP3      1256            0.0000000000
     17569      1357  TIP3      OH2           -28.9777033356       12.7249199368       27.1115746658  TIP3      1257            0.0000000000
     17570      1357  TIP3      H1            -28.6045376631       12.3628906687       27.9531905848  TIP3      1257            0.0000000000
     17571      1357  TIP3      H2            -28.6672914773       12.0630040208       26.4696925376  TIP3      1257            0.0000000000
     17572      1358  TIP3      OH2           -28.2447788354       12.9512873066       23.0368775724  TIP3      1258            0.0000000000
     17573      1358  TIP3      H1            -27.5332733576       13.2935783805       22.4830566205  TIP3      1258            0.0000000000
     17574      1358  TIP3      H2            -28.9107804989       13.6639080140       22.9788118687  TIP3      1258            0.0000000000
     17575      1359  TIP3      OH2           -18.1407205376       16.5080855428       32.7783594393  TIP3      1259            0.0000000000
     17576      1359  TIP3      H1            -17.5649986813       15.8856157778       32.2863419677  TIP3      1259            0.0000000000
     17577      1359  TIP3      H2            -18.6660772997       15.8928657864       33.3385078298  TIP3      1259            0.0000000000
     17578      1360  TIP3      OH2           -21.0284315200       12.5027037265       27.6970301588  TIP3      1260            0.0000000000
     17579      1360  TIP3      H1            -21.9706109774       12.4600048156       27.9308805199  TIP3      1260            0.0000000000
     17580      1360  TIP3      H2            -20.6334614128       11.8090909343       28.2654936499  TIP3      1260            0.0000000000
     17581      1361  TIP3      OH2           -26.4399008441       14.0637538490       26.3715701962  TIP3      1261            0.0000000000
     17582      1361  TIP3      H1            -27.2535167952       14.6129577674       26.2848999007  TIP3      1261            0.0000000000
     17583      1361  TIP3      H2            -26.7781710644       13.2212468087       26.0266027522  TIP3      1261            0.0000000000
     17584      1362  TIP3      OH2           -23.0857501584       13.9079546966       24.0609389284  TIP3      1262            0.0000000000
     17585      1362  TIP3      H1            -22.1675891678       13.8737111042       24.4040660884  TIP3      1262            0.0000000000
     17586      1362  TIP3      H2            -23.1137542568       14.7958053049       23.6720482472  TIP3      1262            0.0000000000
     17587      1363  TIP3      OH2           -17.0151284189       11.5074540280       30.8020134069  TIP3      1263            0.0000000000
     17588      1363  TIP3      H1            -17.8354575583       11.1669760361       31.2026253222  TIP3      1263            0.0000000000
     17589      1363  TIP3      H2            -16.9308623623       10.9928170622       29.9817694854  TIP3      1263            0.0000000000
     17590      1364  TIP3      OH2           -14.1629619013       27.0350091167       37.5267787968  TIP3      1264            0.0000000000
     17591      1364  TIP3      H1            -14.1482857370       27.0429631350       36.5540454051  TIP3      1264            0.0000000000
     17592      1364  TIP3      H2            -13.3476429685       27.5107048824       37.7533774246  TIP3      1264            0.0000000000
     17593      1365  TIP3      OH2           -26.0676052039       19.9469366324       36.6443735159  TIP3      1265            0.0000000000
     17594      1365  TIP3      H1            -25.5061527562       19.9190678637       37.4492904956  TIP3      1265            0.0000000000
     17595      1365  TIP3      H2            -26.9227429624       19.6222191884       37.0092083259  TIP3      1265            0.0000000000
     17596      1366  TIP3      OH2           -20.3238929790       15.3497089533       28.8915195838  TIP3      1266            0.0000000000
     17597      1366  TIP3      H1            -19.5720930545       14.7390078923       28.8820187855  TIP3      1266            0.0000000000
     17598      1366  TIP3      H2            -20.7670299604       15.0628029804       29.7046816830  TIP3      1266            0.0000000000
     17599      1367  TIP3      OH2           -25.2405601621       11.0541557761       26.2200781223  TIP3      1267            0.0000000000
     17600      1367  TIP3      H1            -25.7863150130       10.3767770585       26.6886318768  TIP3      1267            0.0000000000
     17601      1367  TIP3      H2            -25.1233803833       10.5805989637       25.3888650718  TIP3      1267            0.0000000000
     17602      1368  TIP3      OH2           -21.1758634250       13.4951377638       31.7331330861  TIP3      1268            0.0000000000
     17603      1368  TIP3      H1            -22.0726184847       13.8885903878       31.6985767587  TIP3      1268            0.0000000000
     17604      1368  TIP3      H2            -20.7400352447       14.0515909560       32.3968917118  TIP3      1268            0.0000000000
     17605      1369  TIP3      OH2           -13.2794629211       19.2230796790       32.5835995725  TIP3      1269            0.0000000000
     17606      1369  TIP3      H1            -12.8705131236       19.8204010882       31.9099452509  TIP3      1269            0.0000000000
     17607      1369  TIP3      H2            -14.1546298559       19.0669986737       32.1945481783  TIP3      1269            0.0000000000
     17608      1370  TIP3      OH2           -17.3982756548       12.7318979548       22.4485309042  TIP3      1270            0.0000000000
     17609      1370  TIP3      H1            -18.0493943521       13.2798688154       22.9017530236  TIP3      1270            0.0000000000
     17610      1370  TIP3      H2            -16.6519173180       13.3520453600       22.3188402120  TIP3      1270            0.0000000000
     17611      1371  TIP3      OH2           -19.7700789354       20.0900894386       34.8911533504  TIP3      1271            0.0000000000
     17612      1371  TIP3      H1            -20.1140886182       19.9068964597       35.7791949851  TIP3      1271            0.0000000000
     17613      1371  TIP3      H2            -20.0523384170       21.0223837474       34.8022904723  TIP3      1271            0.0000000000
     17614      1372  TIP3      OH2           -15.7455401041       14.6484278610       23.5278573923  TIP3      1272            0.0000000000
     17615      1372  TIP3      H1            -15.0383504419       14.5746032151       24.1918740294  TIP3      1272            0.0000000000
     17616      1372  TIP3      H2            -15.6509602778       15.5510293621       23.1720548344  TIP3      1272            0.0000000000
     17617      1373  TIP3      OH2           -25.3147675161       19.3707692411       29.5886181586  TIP3      1273            0.0000000000
     17618      1373  TIP3      H1            -24.7439541336       19.1652891360       28.8229899812  TIP3      1273            0.0000000000
     17619      1373  TIP3      H2            -25.3643707538       18.5280551174       30.0778772540  TIP3      1273            0.0000000000
     17620      1374  TIP3      OH2           -28.4270716074       17.2567608246       34.3710325909  TIP3      1274            0.0000000000
     17621      1374  TIP3      H1            -28.3154706862       17.0079904107       35.3065446179  TIP3      1274            0.0000000000
     17622      1374  TIP3      H2            -29.4024980055       17.2876740194       34.3597380177  TIP3      1274            0.0000000000
     17623      1375  TIP3      OH2           -22.2755354872       17.1607795907       36.6899438775  TIP3      1275            0.0000000000
     17624      1375  TIP3      H1            -22.3431870068       16.7220357156       35.8243727354  TIP3      1275            0.0000000000
     17625      1375  TIP3      H2            -21.3732961479       16.9056520661       36.9504134314  TIP3      1275            0.0000000000
     17626      1376  TIP3      OH2           -16.8055058102       22.6326219365       35.1768815665  TIP3      1276            0.0000000000
     17627      1376  TIP3      H1            -17.6819190539       22.5851423260       34.7723139495  TIP3      1276            0.0000000000
     17628      1376  TIP3      H2            -17.0610971040       22.8837726081       36.0953027024  TIP3      1276            0.0000000000
     17629      1377  TIP3      OH2           -11.9661288098       14.5944727833       23.5074446836  TIP3      1277            0.0000000000
     17630      1377  TIP3      H1            -11.7833118928       14.2467402065       22.6237179270  TIP3      1277            0.0000000000
     17631      1377  TIP3      H2            -11.3323034749       15.3193409977       23.6168796637  TIP3      1277            0.0000000000
     17632      1378  TIP3      OH2           -11.2056721975       20.5127724398       35.7956472905  TIP3      1278            0.0000000000
     17633      1378  TIP3      H1            -12.1233759736       20.6596793128       35.4750220455  TIP3      1278            0.0000000000
     17634      1378  TIP3      H2            -10.7177285071       20.4613181672       34.9396116723  TIP3      1278            0.0000000000
     17635      1379  TIP3      OH2           -12.9259102732       23.4990013278       23.6931101711  TIP3      1279            0.0000000000
     17636      1379  TIP3      H1            -12.7679499181       22.5706428525       23.8832499245  TIP3      1279            0.0000000000
     17637      1379  TIP3      H2            -12.2453187823       23.7216154478       23.0358977740  TIP3      1279            0.0000000000
     17638      1380  TIP3      OH2           -15.9195237366       18.2903777181       30.6045969421  TIP3      1280            0.0000000000
     17639      1380  TIP3      H1            -16.8505476884       18.0816863093       30.4093222609  TIP3      1280            0.0000000000
     17640      1380  TIP3      H2            -15.4529128451       17.6178265924       30.0643063489  TIP3      1280            0.0000000000
     17641      1381  TIP3      OH2           -23.1793256530       22.7315467579       27.3569936782  TIP3      1281            0.0000000000
     17642      1381  TIP3      H1            -22.9576271883       23.4838217893       26.7689618207  TIP3      1281            0.0000000000
     17643      1381  TIP3      H2            -24.1409122676       22.8217656138       27.4010117169  TIP3      1281            0.0000000000
     17644      1382  TIP3      OH2           -21.8272716029       20.5064329957       26.1871074246  TIP3      1282            0.0000000000
     17645      1382  TIP3      H1            -22.3133256717       21.2705776557       26.5454852291  TIP3      1282            0.0000000000
     17646      1382  TIP3      H2            -22.2088910607       19.7674139941       26.6887385509  TIP3      1282            0.0000000000
     17647      1383  TIP3      OH2           -21.4313350212       24.4982491099       33.3247612903  TIP3      1283            0.0000000000
     17648      1383  TIP3      H1            -20.7967828001       25.1036050801       32.9022689657  TIP3      1283            0.0000000000
     17649      1383  TIP3      H2            -20.8651012319       24.0380904830       33.9769590543  TIP3      1283            0.0000000000
     17650      1384  TIP3      OH2           -23.4151536098       24.9964156834       25.7585713437  TIP3      1284            0.0000000000
     17651      1384  TIP3      H1            -24.3428984910       25.2067955744       26.0041033160  TIP3      1284            0.0000000000
     17652      1384  TIP3      H2            -23.0199669564       25.7737300625       26.2186601108  TIP3      1284            0.0000000000
     17653      1385  TIP3      OH2           -18.3300760476       20.3703297139       32.3813444114  TIP3      1285            0.0000000000
     17654      1385  TIP3      H1            -18.6766508779       20.1068995721       33.2656407632  TIP3      1285            0.0000000000
     17655      1385  TIP3      H2            -17.7997475973       19.5924852029       32.1349294915  TIP3      1285            0.0000000000
     17656      1386  TIP3      OH2           -15.5583638095       20.3225432554       21.1797955252  TIP3      1286            0.0000000000
     17657      1386  TIP3      H1            -15.0975628794       20.2886760080       22.0485923805  TIP3      1286            0.0000000000
     17658      1386  TIP3      H2            -15.9806735985       21.1933753856       21.2187419123  TIP3      1286            0.0000000000
     17659      1387  TIP3      OH2           -15.0087298122       25.0877481628       34.9760362538  TIP3      1287            0.0000000000
     17660      1387  TIP3      H1            -15.7963609210       24.4990134929       34.9780485776  TIP3      1287            0.0000000000
     17661      1387  TIP3      H2            -15.1233462716       25.6015823296       34.1394023152  TIP3      1287            0.0000000000
     17662      1388  TIP3      OH2           -26.6030798939       12.0607507124       34.2727715984  TIP3      1288            0.0000000000
     17663      1388  TIP3      H1            -27.4657675601       12.0593881708       33.8047836770  TIP3      1288            0.0000000000
     17664      1388  TIP3      H2            -26.7127075470       11.3379910663       34.9059144759  TIP3      1288            0.0000000000
     17665      1389  TIP3      OH2           -14.5662707557       19.9963578792       23.7061862818  TIP3      1289            0.0000000000
     17666      1389  TIP3      H1            -14.6836411492       19.2344411408       24.3161068075  TIP3      1289            0.0000000000
     17667      1389  TIP3      H2            -13.5990203784       19.9027885148       23.5575950937  TIP3      1289            0.0000000000
     17668      1390  TIP3      OH2           -27.2389445049       24.2585154298       32.6391567525  TIP3      1290            0.0000000000
     17669      1390  TIP3      H1            -26.6587624204       23.5929073740       33.0415610897  TIP3      1290            0.0000000000
     17670      1390  TIP3      H2            -26.8913993777       25.0805651777       33.0666941782  TIP3      1290            0.0000000000
     17671      1391  TIP3      OH2           -20.9424773273       22.9860503344       20.6006688664  TIP3      1291            0.0000000000
     17672      1391  TIP3      H1            -21.2890976001       22.8664874387       19.7032038475  TIP3      1291            0.0000000000
     17673      1391  TIP3      H2            -21.7530026258       23.0038018739       21.1451745323  TIP3      1291            0.0000000000
     17674      1392  TIP3      OH2           -22.8577521183       22.3181756719       22.6083751209  TIP3      1292            0.0000000000
     17675      1392  TIP3      H1            -22.2410009570       21.8358247618       23.1788344435  TIP3      1292            0.0000000000
     17676      1392  TIP3      H2            -22.8418926789       23.2324161409       22.9870555786  TIP3      1292            0.0000000000
     17677      1393  TIP3      OH2           -18.3057277819       12.2088775874       33.5572746619  TIP3      1293            0.0000000000
     17678      1393  TIP3      H1            -17.3466618492       12.2273736936       33.7373831864  TIP3      1293            0.0000000000
     17679      1393  TIP3      H2            -18.5035698357       11.2659845310       33.6979814050  TIP3      1293            0.0000000000
     17680      1394  TIP3      OH2           -17.5832935059       11.7310358925       24.9678523514  TIP3      1294            0.0000000000
     17681      1394  TIP3      H1            -17.1586684347       12.1601605031       24.2013676245  TIP3      1294            0.0000000000
     17682      1394  TIP3      H2            -17.1216276130       12.1139468594       25.7562533172  TIP3      1294            0.0000000000
     17683      1395  TIP3      OH2           -19.6893667346       24.0851505336       22.7794133715  TIP3      1295            0.0000000000
     17684      1395  TIP3      H1            -20.4176917483       24.6543205314       23.0671463887  TIP3      1295            0.0000000000
     17685      1395  TIP3      H2            -20.0819489071       23.6551104635       21.9912896146  TIP3      1295            0.0000000000
     17686      1396  TIP3      OH2           -20.5061519047       13.8245492528       25.1874975891  TIP3      1296            0.0000000000
     17687      1396  TIP3      H1            -19.6958585948       14.3238080405       25.4231389649  TIP3      1296            0.0000000000
     17688      1396  TIP3      H2            -20.6760542936       13.3387446637       26.0229250557  TIP3      1296            0.0000000000
     17689      1397  TIP3      OH2           -19.4481473969       14.7800827319       34.4590798605  TIP3      1297            0.0000000000
     17690      1397  TIP3      H1            -19.5579692115       14.9714620298       35.4135631388  TIP3      1297            0.0000000000
     17691      1397  TIP3      H2            -19.1753365896       13.8401881103       34.4027774151  TIP3      1297            0.0000000000
     17692      1398  TIP3      OH2           -19.5814864997       10.2514583294       25.8393130623  TIP3      1298            0.0000000000
     17693      1398  TIP3      H1            -19.6691148275       10.5589942412       26.7691735217  TIP3      1298            0.0000000000
     17694      1398  TIP3      H2            -18.8068953110       10.8114682320       25.5585760107  TIP3      1298            0.0000000000
     17695      1399  TIP3      OH2           -22.5145364050       24.9059622474       23.2286619426  TIP3      1299            0.0000000000
     17696      1399  TIP3      H1            -22.4936875092       25.7883469785       22.8419250612  TIP3      1299            0.0000000000
     17697      1399  TIP3      H2            -22.9387340812       25.0678016412       24.1072205909  TIP3      1299            0.0000000000
     17698      1400  TIP3      OH2           -24.5663350696       11.5095149820       23.2926650534  TIP3      1300            0.0000000000
     17699      1400  TIP3      H1            -24.3255861106       12.4282482877       23.5548294759  TIP3      1300            0.0000000000
     17700      1400  TIP3      H2            -23.8030585470       11.0159397886       23.6263430445  TIP3      1300            0.0000000000
     17701      1401  TIP3      OH2           -13.8012808587       12.0646555002       35.5112180087  TIP3      1301            0.0000000000
     17702      1401  TIP3      H1            -14.7537353449       12.2092642403       35.3451975309  TIP3      1301            0.0000000000
     17703      1401  TIP3      H2            -13.3962068179       12.3117085182       34.6569920492  TIP3      1301            0.0000000000
     17704      1402  TIP3      OH2           -14.5275258691       16.1304465277       29.0428030738  TIP3      1302            0.0000000000
     17705      1402  TIP3      H1            -15.2786342669       15.5062914828       28.9419510192  TIP3      1302            0.0000000000
     17706      1402  TIP3      H2            -13.9229394868       15.6113793869       29.6217088086  TIP3      1302            0.0000000000
     17707      1403  TIP3      OH2           -13.6074474624       26.1833815674       31.1020394704  TIP3      1303            0.0000000000
     17708      1403  TIP3      H1            -13.9229675520       26.6475027081       30.2888179523  TIP3      1303            0.0000000000
     17709      1403  TIP3      H2            -12.6352830847       26.1959647112       30.9533618734  TIP3      1303            0.0000000000
     17710      1404  TIP3      OH2           -26.3988750845        9.3687141101       29.6873840630  TIP3      1304            0.0000000000
     17711      1404  TIP3      H1            -26.5282324467        9.1129400468       28.7496590417  TIP3      1304            0.0000000000
     17712      1404  TIP3      H2            -26.8295299928        8.6025264059       30.1213447222  TIP3      1304            0.0000000000
     17713      1405  TIP3      OH2           -27.6265556030       23.5173942678       25.9117004894  TIP3      1305            0.0000000000
     17714      1405  TIP3      H1            -28.6004380526       23.5609469558       25.9344825700  TIP3      1305            0.0000000000
     17715      1405  TIP3      H2            -27.4412187940       24.0623951149       25.1266732747  TIP3      1305            0.0000000000
     17716      1406  TIP3      OH2           -28.0534588918       25.7046877456       37.3619838826  TIP3      1306            0.0000000000
     17717      1406  TIP3      H1            -27.7536004750       25.8682535934       38.2767468329  TIP3      1306            0.0000000000
     17718      1406  TIP3      H2            -27.7752010869       24.7707023462       37.2718516927  TIP3      1306            0.0000000000
     17719      1407  TIP3      OH2           -24.0267440690       24.9883158963       38.7502266773  TIP3      1307            0.0000000000
     17720      1407  TIP3      H1            -23.5158414592       24.4164489052       39.3466886117  TIP3      1307            0.0000000000
     17721      1407  TIP3      H2            -23.9093119517       24.5453910347       37.8826298688  TIP3      1307            0.0000000000
     17722      1408  TIP3      OH2           -17.2833107518       23.6108043060       37.6308342990  TIP3      1308            0.0000000000
     17723      1408  TIP3      H1            -17.5571567143       22.7544448906       38.0407576385  TIP3      1308            0.0000000000
     17724      1408  TIP3      H2            -16.3649687085       23.6622315515       37.9601759167  TIP3      1308            0.0000000000
     17725      1409  TIP3      OH2           -28.2787271979       19.7527407534       38.1303006845  TIP3      1309            0.0000000000
     17726      1409  TIP3      H1            -28.1522008665       18.8238311373       38.4004431698  TIP3      1309            0.0000000000
     17727      1409  TIP3      H2            -29.2527027697       19.7320740469       37.9801508711  TIP3      1309            0.0000000000
     17728      1410  TIP3      OH2           -24.3872716478       19.9430256888       19.4237095882  TIP3      1310            0.0000000000
     17729      1410  TIP3      H1            -24.7322074714       19.1471676097       18.9598200698  TIP3      1310            0.0000000000
     17730      1410  TIP3      H2            -24.0023961511       20.4341326332       18.6878697650  TIP3      1310            0.0000000000
     17731      1411  TIP3      OH2           -21.8007895109       19.7411606918       36.9363936735  TIP3      1311            0.0000000000
     17732      1411  TIP3      H1            -22.1340677375       20.4213362453       36.3097829278  TIP3      1311            0.0000000000
     17733      1411  TIP3      H2            -22.0208481306       18.8876038877       36.4944042008  TIP3      1311            0.0000000000
     17734      1412  TIP3      OH2           -16.1469348999       19.7110115708       34.9701793926  TIP3      1312            0.0000000000
     17735      1412  TIP3      H1            -15.2733963295       20.1614625286       34.9661069776  TIP3      1312            0.0000000000
     17736      1412  TIP3      H2            -16.7178128627       20.4767409380       35.1113915729  TIP3      1312            0.0000000000
     17737      1413  TIP3      OH2           -27.2471486072       16.9751780974       37.5173585622  TIP3      1313            0.0000000000
     17738      1413  TIP3      H1            -27.3283872948       16.1217727381       37.9990869120  TIP3      1313            0.0000000000
     17739      1413  TIP3      H2            -26.5035645209       17.3667578848       37.9943080953  TIP3      1313            0.0000000000
     17740      1414  TIP3      OH2           -22.8076471160       17.1040906574       22.9333546477  TIP3      1314            0.0000000000
     17741      1414  TIP3      H1            -23.3198604631       17.6272409753       23.5671059285  TIP3      1314            0.0000000000
     17742      1414  TIP3      H2            -23.2299431908       17.3387601361       22.0990845141  TIP3      1314            0.0000000000
     17743      1415  TIP3      OH2           -23.9843365555       15.8688469781       34.2668501523  TIP3      1315            0.0000000000
     17744      1415  TIP3      H1            -24.4162770213       16.7283175309       34.4483263777  TIP3      1315            0.0000000000
     17745      1415  TIP3      H2            -23.1951854709       16.1762161854       33.7781611941  TIP3      1315            0.0000000000
     17746      1416  TIP3      OH2           -18.0963833318       18.7100338132       38.3553893751  TIP3      1316            0.0000000000
     17747      1416  TIP3      H1            -17.3975636388       18.4835523088       37.7167280038  TIP3      1316            0.0000000000
     17748      1416  TIP3      H2            -18.6302094695       17.9117259638       38.3810853790  TIP3      1316            0.0000000000
     17749      1417  TIP3      OH2           -22.6217372650       13.6738990664       35.5889933666  TIP3      1317            0.0000000000
     17750      1417  TIP3      H1            -22.6537629844       12.9799298807       34.8942556516  TIP3      1317            0.0000000000
     17751      1417  TIP3      H2            -22.7324140499       14.4911087321       35.0649700263  TIP3      1317            0.0000000000
     17752      1418  TIP3      OH2           -22.3460265987       11.7622516623       33.4409170507  TIP3      1318            0.0000000000
     17753      1418  TIP3      H1            -21.7026821195       12.2163024950       32.8449415234  TIP3      1318            0.0000000000
     17754      1418  TIP3      H2            -23.1670489202       11.9397056062       32.9461820645  TIP3      1318            0.0000000000
     17755      1419  TIP3      OH2           -21.5280605084       17.3158983970       33.7605141203  TIP3      1319            0.0000000000
     17756      1419  TIP3      H1            -20.5957764305       17.5441221383       33.6675243295  TIP3      1319            0.0000000000
     17757      1419  TIP3      H2            -21.9592093652       18.0850304580       33.3269303939  TIP3      1319            0.0000000000
     17758      1420  TIP3      OH2           -17.0878712344       15.4001789441       39.1424350046  TIP3      1320            0.0000000000
     17759      1420  TIP3      H1            -17.0626626311       14.6210576717       39.7257562276  TIP3      1320            0.0000000000
     17760      1420  TIP3      H2            -16.1813063498       15.3864952265       38.8159709735  TIP3      1320            0.0000000000
     17761      1421  TIP3      OH2           -15.1378889534       18.1234307160       36.9389009488  TIP3      1321            0.0000000000
     17762      1421  TIP3      H1            -15.5445736803       18.6263056479       36.1986904071  TIP3      1321            0.0000000000
     17763      1421  TIP3      H2            -14.1947107856       18.0869264722       36.6744684806  TIP3      1321            0.0000000000
     17764      1422  TIP3      OH2           -24.6265621926       14.3091122410       37.9515468287  TIP3      1322            0.0000000000
     17765      1422  TIP3      H1            -25.5651002035       14.0934109697       37.7581901786  TIP3      1322            0.0000000000
     17766      1422  TIP3      H2            -24.1866073549       13.9575841030       37.1601037926  TIP3      1322            0.0000000000
     17767      1423  TIP3      OH2           -21.6487396538        9.1599176901       33.4229817968  TIP3      1323            0.0000000000
     17768      1423  TIP3      H1            -21.8507250008       10.1204551213       33.4048034675  TIP3      1323            0.0000000000
     17769      1423  TIP3      H2            -22.5306228970        8.7825459088       33.2730192678  TIP3      1323            0.0000000000
     17770      1424  TIP3      OH2           -20.7601231984       13.3596820237       37.6119567505  TIP3      1324            0.0000000000
     17771      1424  TIP3      H1            -21.2897054742       12.9447789155       38.3203009199  TIP3      1324            0.0000000000
     17772      1424  TIP3      H2            -21.4189287774       13.2851990035       36.8868867548  TIP3      1324            0.0000000000
     17773      1425  TIP3      OH2           -18.1305804214       12.9268522450       36.8120075112  TIP3      1325            0.0000000000
     17774      1425  TIP3      H1            -19.0656745666       12.8957066258       37.1024701952  TIP3      1325            0.0000000000
     17775      1425  TIP3      H2            -17.7927630245       12.2530475785       37.4465164231  TIP3      1325            0.0000000000
     17776      1426  TIP3      OH2           -17.1784376590       11.0915078198       38.4324733941  TIP3      1326            0.0000000000
     17777      1426  TIP3      H1            -16.9401488475       10.1423955088       38.5554083258  TIP3      1326            0.0000000000
     17778      1426  TIP3      H2            -17.0005570102       11.5126271078       39.3004481779  TIP3      1326            0.0000000000
     17779      1427  TIP3      OH2           -26.6886173079       12.4804092341       37.3746474790  TIP3      1327            0.0000000000
     17780      1427  TIP3      H1            -26.6630001545       11.6826867105       36.8227605730  TIP3      1327            0.0000000000
     17781      1427  TIP3      H2            -26.3074623384       12.1459473489       38.2112675448  TIP3      1327            0.0000000000
     17782      1428  TIP3      OH2           -22.2218072940        8.7057799165       36.2332441536  TIP3      1328            0.0000000000
     17783      1428  TIP3      H1            -21.4996762252        8.0636184173       36.3597456458  TIP3      1328            0.0000000000
     17784      1428  TIP3      H2            -22.1428631519        8.8905099348       35.2830452731  TIP3      1328            0.0000000000
     17785      1429  TIP3      OH2           -22.3200735940        9.7103848141       38.8480277110  TIP3      1329            0.0000000000
     17786      1429  TIP3      H1            -22.0885525068        9.5170099951       37.9238711902  TIP3      1329            0.0000000000
     17787      1429  TIP3      H2            -22.8718567225       10.5121884431       38.7771328377  TIP3      1329            0.0000000000
     17788      1430  TIP3      OH2            29.6176458593       26.9453324926       26.1183355617  TIP3      1330            0.0000000000
     17789      1430  TIP3      H1             28.6518656770       26.9168066123       26.2717244857  TIP3      1330            0.0000000000
     17790      1430  TIP3      H2             29.9460076422       26.5028621229       26.9347735543  TIP3      1330            0.0000000000
     17791      1431  TIP3      OH2           -28.4960584951       25.4622563427       28.0729049251  TIP3      1331            0.0000000000
     17792      1431  TIP3      H1            -29.2017910366       24.8025947545       27.9596691506  TIP3      1331            0.0000000000
     17793      1431  TIP3      H2            -28.0306204378       25.1120152345       28.8499293882  TIP3      1331            0.0000000000
     17794      1432  TIP3      OH2           -10.8966683237       26.3770603247       31.1852362050  TIP3      1332            0.0000000000
     17795      1432  TIP3      H1            -10.8365526381       25.7328667486       31.9070725191  TIP3      1332            0.0000000000
     17796      1432  TIP3      H2            -10.6365800070       27.1737551775       31.7017254106  TIP3      1332            0.0000000000
     17797      1433  TIP3      OH2           -11.9433301090       25.2674858662       33.8207637848  TIP3      1333            0.0000000000
     17798      1433  TIP3      H1            -12.3183936066       24.5860841240       33.2256044503  TIP3      1333            0.0000000000
     17799      1433  TIP3      H2            -11.5626980800       24.7198843270       34.5325623770  TIP3      1333            0.0000000000
     17800      1434  TIP3      OH2           -12.7037985381       21.3200993592       38.6997131316  TIP3      1334            0.0000000000
     17801      1434  TIP3      H1            -13.4257074041       21.5732998597       39.3182838172  TIP3      1334            0.0000000000
     17802      1434  TIP3      H2            -12.1832912846       22.1461191054       38.6438205329  TIP3      1334            0.0000000000
     17803      1435  TIP3      OH2           -12.0189488909       19.2123857704       23.7105402109  TIP3      1335            0.0000000000
     17804      1435  TIP3      H1            -11.1446414480       19.6625182069       23.7631052988  TIP3      1335            0.0000000000
     17805      1435  TIP3      H2            -12.0168977623       18.7421874762       24.5711443343  TIP3      1335            0.0000000000
     17806      1436  TIP3      OH2           -11.2305987563       17.6780190954       26.0586607534  TIP3      1336            0.0000000000
     17807      1436  TIP3      H1            -12.0198250490       17.2535077895       26.4728328093  TIP3      1336            0.0000000000
     17808      1436  TIP3      H2            -10.6399096926       17.7111953752       26.8390810465  TIP3      1336            0.0000000000
     17809      1437  TIP3      OH2           -11.7950244896       20.4592331808       30.8088835895  TIP3      1337            0.0000000000
     17810      1437  TIP3      H1            -11.1655911079       19.7692459866       30.4977621764  TIP3      1337            0.0000000000
     17811      1437  TIP3      H2            -11.3352621180       21.2917534509       30.5834736521  TIP3      1337            0.0000000000
     17812      1438  TIP3      OH2           -13.2510889052       23.0001611940       33.2268844414  TIP3      1338            0.0000000000
     17813      1438  TIP3      H1            -13.7771412861       23.6048384514       33.7826978336  TIP3      1338            0.0000000000
     17814      1438  TIP3      H2            -13.7894431281       22.8831553094       32.4215868135  TIP3      1338            0.0000000000
     17815      1439  TIP3      OH2           -13.2865221462       16.1749006838       26.7487105480  TIP3      1339            0.0000000000
     17816      1439  TIP3      H1            -13.5211577031       15.2581356270       26.4809066562  TIP3      1339            0.0000000000
     17817      1439  TIP3      H2            -13.6218179509       16.1852450395       27.6804287021  TIP3      1339            0.0000000000
     17818      1440  TIP3      OH2           -28.4573862815       18.3527361384       31.3617475111  TIP3      1340            0.0000000000
     17819      1440  TIP3      H1            -28.4130112857       18.5789037534       30.4143396136  TIP3      1340            0.0000000000
     17820      1440  TIP3      H2            -27.5640420616       17.9674829099       31.5090297429  TIP3      1340            0.0000000000
     17821      1441  TIP3      OH2           -12.4572729202       17.8656766452       36.2332136733  TIP3      1341            0.0000000000
     17822      1441  TIP3      H1            -12.0267125037       17.0535503014       36.6083928631  TIP3      1341            0.0000000000
     17823      1441  TIP3      H2            -11.7157408866       18.3497448143       35.8168157151  TIP3      1341            0.0000000000
     17824      1442  TIP3      OH2           -11.3606255411       15.7248792129       37.3393137603  TIP3      1342            0.0000000000
     17825      1442  TIP3      H1            -12.2001245921       15.2540415627       37.1572956058  TIP3      1342            0.0000000000
     17826      1442  TIP3      H2            -10.7332735822       15.0448594239       36.9847056804  TIP3      1342            0.0000000000
     17827      1443  TIP3      OH2           -13.7693357767       13.7985547583       25.6335133491  TIP3      1343            0.0000000000
     17828      1443  TIP3      H1            -13.8825156296       12.8239412525       25.5422128282  TIP3      1343            0.0000000000
     17829      1443  TIP3      H2            -13.1841511946       13.9779167131       24.8700116543  TIP3      1343            0.0000000000
     17830      1444  TIP3      OH2           -12.9858377012       14.5108927330       30.4306577872  TIP3      1344            0.0000000000
     17831      1444  TIP3      H1            -12.0054130340       14.5382316801       30.5231965473  TIP3      1344            0.0000000000
     17832      1444  TIP3      H2            -13.2102129668       14.5290881957       31.3764554138  TIP3      1344            0.0000000000
     17833      1445  TIP3      OH2           -13.0613211053       15.0867140672       33.0604459531  TIP3      1345            0.0000000000
     17834      1445  TIP3      H1            -13.9428113565       15.3377417987       33.4140180583  TIP3      1345            0.0000000000
     17835      1445  TIP3      H2            -12.6571005469       15.9627106685       32.8590917204  TIP3      1345            0.0000000000
     17836      1446  TIP3      OH2           -29.2232025497       13.5462570020       36.7894094858  TIP3      1346            0.0000000000
     17837      1446  TIP3      H1            -28.2464205255       13.5337698582       36.8028402076  TIP3      1346            0.0000000000
     17838      1446  TIP3      H2            -29.3936104145       12.6366973951       37.0593792108  TIP3      1346            0.0000000000
     17839      1447  TIP3      OH2           -10.8127420653        9.2542627269       38.4656395151  TIP3      1347            0.0000000000
     17840      1447  TIP3      H1            -10.7402334729        8.6011788885       37.7475979653  TIP3      1347            0.0000000000
     17841      1447  TIP3      H2            -10.9119242946       10.0747199825       37.9280179003  TIP3      1347            0.0000000000
     17842      1448  TIP3      OH2           -13.7600708239       11.0511245058       25.3040168505  TIP3      1348            0.0000000000
     17843      1448  TIP3      H1            -13.2121189571       10.7926210368       26.0748030241  TIP3      1348            0.0000000000
     17844      1448  TIP3      H2            -14.0223577409       10.1803476810       24.9662054366  TIP3      1348            0.0000000000
     17845      1449  TIP3      OH2           -27.4752793713       11.8714251041       29.2267623541  TIP3      1349            0.0000000000
     17846      1449  TIP3      H1            -26.9417051239       11.0691962322       29.3860385893  TIP3      1349            0.0000000000
     17847      1449  TIP3      H2            -27.7642835936       12.0970630582       30.1273808238  TIP3      1349            0.0000000000
     17848      1450  TIP3      OH2           -29.1847711440       15.3478642624       30.7959666720  TIP3      1350            0.0000000000
     17849      1450  TIP3      H1            -28.7966008526       14.5580306503       31.2407699764  TIP3      1350            0.0000000000
     17850      1450  TIP3      H2            -28.7351387725       16.0788088639       31.2563826842  TIP3      1350            0.0000000000
     17851      1451  TIP3      OH2           -11.5730294067       11.2848986843       36.8788215498  TIP3      1351            0.0000000000
     17852      1451  TIP3      H1            -12.4284229223       11.7012950117       37.1375217717  TIP3      1351            0.0000000000
     17853      1451  TIP3      H2            -11.9141940266       10.7998853112       36.1058407302  TIP3      1351            0.0000000000
     17854      1452  TIP3      OH2           -11.8514476292       10.7399681055       21.3157063491  TIP3      1352            0.0000000000
     17855      1452  TIP3      H1            -11.8842375646       10.5840667232       20.3455082484  TIP3      1352            0.0000000000
     17856      1452  TIP3      H2            -11.6883036142       11.6939932552       21.3261365449  TIP3      1352            0.0000000000
     17857      1453  TIP3      OH2           -28.9107140836       11.0001898453       24.7614740321  TIP3      1353            0.0000000000
     17858      1453  TIP3      H1            -29.8734504787       10.8587962190       24.8012698496  TIP3      1353            0.0000000000
     17859      1453  TIP3      H2            -28.8331241693       11.7219975539       24.0992191450  TIP3      1353            0.0000000000
     17860      1454  TIP3      OH2           -14.7486447260       26.2410672126       26.5359436746  TIP3      1354            0.0000000000
     17861      1454  TIP3      H1            -13.9348534348       26.1413976925       25.9849998897  TIP3      1354            0.0000000000
     17862      1454  TIP3      H2            -14.4141134187       26.7548780238       27.2943028029  TIP3      1354            0.0000000000
     17863      1455  TIP3      OH2            29.5273366918        9.4864892158       33.0083387404  TIP3      1355            0.0000000000
     17864      1455  TIP3      H1             28.5757071224        9.5486628174       33.2622844019  TIP3      1355            0.0000000000
     17865      1455  TIP3      H2             29.7306675930       10.4432933140       32.9468204990  TIP3      1355            0.0000000000
     17866      1456  TIP3      OH2           -27.2038737091       22.9324503065       37.3981332674  TIP3      1356            0.0000000000
     17867      1456  TIP3      H1            -27.5288293924       22.2000434582       36.8467975322  TIP3      1356            0.0000000000
     17868      1456  TIP3      H2            -27.5168844957       22.6624241629       38.2806528742  TIP3      1356            0.0000000000
     17869      1457  TIP3      OH2           -24.3416847211       24.3837007321       33.7839224761  TIP3      1357            0.0000000000
     17870      1457  TIP3      H1            -24.2951848465       25.3382467946       33.5549169985  TIP3      1357            0.0000000000
     17871      1457  TIP3      H2            -23.3892711949       24.1594690318       33.7670845054  TIP3      1357            0.0000000000
     17872      1458  TIP3      OH2           -20.1072627873       25.3505560722       36.4900769500  TIP3      1358            0.0000000000
     17873      1458  TIP3      H1            -20.0374657037       25.0494961933       37.4230982046  TIP3      1358            0.0000000000
     17874      1458  TIP3      H2            -19.2252853391       25.7717856638       36.3868891673  TIP3      1358            0.0000000000
     17875      1459  TIP3      OH2           -17.7930129239       26.8805877268       36.2133304964  TIP3      1359            0.0000000000
     17876      1459  TIP3      H1            -17.0601062912       26.3997809176       35.8083850342  TIP3      1359            0.0000000000
     17877      1459  TIP3      H2            -17.4045121669       27.1520776746       37.0738206967  TIP3      1359            0.0000000000
     17878      1460  TIP3      OH2           -12.7202091289        9.0331493461       35.0442305470  TIP3      1360            0.0000000000
     17879      1460  TIP3      H1            -13.4406053026        9.4731170631       34.5784077455  TIP3      1360            0.0000000000
     17880      1460  TIP3      H2            -12.7466718696        8.1334382407       34.6661595023  TIP3      1360            0.0000000000
     17881      1461  TIP3      OH2           -27.0279548344       26.6864347070       33.7193556675  TIP3      1361            0.0000000000
     17882      1461  TIP3      H1            -27.8867387931       27.0607666269       33.4061644977  TIP3      1361            0.0000000000
     17883      1461  TIP3      H2            -26.9780343080       27.1331422867       34.5885587051  TIP3      1361            0.0000000000
     17884      1462  TIP3      OH2           -24.6927083126       26.8823823874       32.4997679092  TIP3      1362            0.0000000000
     17885      1462  TIP3      H1            -25.6349958855       26.9428423639       32.7908027746  TIP3      1362            0.0000000000
     17886      1462  TIP3      H2            -24.7456789524       27.3884979138       31.6710941906  TIP3      1362            0.0000000000
     17887      1463  TIP3      OH2           -19.4635938096       26.7498298806       31.7246608813  TIP3      1363            0.0000000000
     17888      1463  TIP3      H1            -20.2715083204       27.1774184977       31.3865517413  TIP3      1363            0.0000000000
     17889      1463  TIP3      H2            -19.3005193125       27.2456908490       32.5642850364  TIP3      1363            0.0000000000
     17890      1464  TIP3      OH2           -17.6842812959       25.2109871525       33.1287022028  TIP3      1364            0.0000000000
     17891      1464  TIP3      H1            -18.2778105887       25.5736203509       32.4384946816  TIP3      1364            0.0000000000
     17892      1464  TIP3      H2            -16.9037397522       25.7729722137       32.9217189590  TIP3      1364            0.0000000000
     17893      1465  TIP3      OH2           -15.5168677345       26.7994223680       32.9031272586  TIP3      1365            0.0000000000
     17894      1465  TIP3      H1            -15.1688987924       27.6901520414       33.0908799578  TIP3      1365            0.0000000000
     17895      1465  TIP3      H2            -14.9720041802       26.5733863860       32.1093399798  TIP3      1365            0.0000000000
     17896      1466  TIP3      OH2           -27.1173971278       25.7591123524       30.4373229674  TIP3      1366            0.0000000000
     17897      1466  TIP3      H1            -27.3689782989       25.1489748628       31.1709575770  TIP3      1366            0.0000000000
     17898      1466  TIP3      H2            -26.1954323187       25.4606001963       30.2624295602  TIP3      1366            0.0000000000
     17899      1467  TIP3      OH2           -24.8912676625       24.6486897893       29.2600017219  TIP3      1367            0.0000000000
     17900      1467  TIP3      H1            -25.1351458846       23.7566736864       29.5506907163  TIP3      1367            0.0000000000
     17901      1467  TIP3      H2            -24.0165186857       24.7426576206       29.6985262024  TIP3      1367            0.0000000000
     17902      1468  TIP3      OH2           -22.7319711263       24.7017196602       30.7606524742  TIP3      1368            0.0000000000
     17903      1468  TIP3      H1            -22.3723294485       23.8279058110       30.5036036225  TIP3      1368            0.0000000000
     17904      1468  TIP3      H2            -22.6131522413       24.6798746870       31.7299063401  TIP3      1368            0.0000000000
     17905      1469  TIP3      OH2           -19.8447165171       10.2229874524       28.7288836217  TIP3      1369            0.0000000000
     17906      1469  TIP3      H1            -20.6491520448        9.8123124138       29.1204453042  TIP3      1369            0.0000000000
     17907      1469  TIP3      H2            -19.2388178326        9.4745615699       28.8022572301  TIP3      1369            0.0000000000
     17908      1470  TIP3      OH2           -14.0194876879        8.8322317571       29.1113265473  TIP3      1370            0.0000000000
     17909      1470  TIP3      H1            -13.3379060291        9.3803403849       28.6542342844  TIP3      1370            0.0000000000
     17910      1470  TIP3      H2            -14.8531383560        9.2261400918       28.7609945827  TIP3      1370            0.0000000000
     17911      1471  TIP3      OH2           -12.3537950551        9.9592557677       27.2866937588  TIP3      1371            0.0000000000
     17912      1471  TIP3      H1            -11.8184037533        9.2595249027       26.8407500467  TIP3      1371            0.0000000000
     17913      1471  TIP3      H2            -11.6632167209       10.6627220911       27.4418897874  TIP3      1371            0.0000000000
     17914      1472  TIP3      OH2           -26.5000970781        8.9090237055       26.8684116259  TIP3      1372            0.0000000000
     17915      1472  TIP3      H1            -27.3402670198        8.7598922275       26.4077924593  TIP3      1372            0.0000000000
     17916      1472  TIP3      H2            -26.0828124057        8.0049827336       26.8352892316  TIP3      1372            0.0000000000
     17917      1473  TIP3      OH2           -27.8958400912        9.3953822516       22.4896667964  TIP3      1373            0.0000000000
     17918      1473  TIP3      H1            -27.4512801435       10.2242437869       22.1994219516  TIP3      1373            0.0000000000
     17919      1473  TIP3      H2            -28.0719882613        9.6020296356       23.4198574110  TIP3      1373            0.0000000000
     17920      1474  TIP3      OH2           -22.3919232907        8.6784263502       26.9282263389  TIP3      1374            0.0000000000
     17921      1474  TIP3      H1            -21.8005764854        9.3347165788       26.5542110332  TIP3      1374            0.0000000000
     17922      1474  TIP3      H2            -22.4757402245        8.9679012634       27.8451622348  TIP3      1374            0.0000000000
     17923      1475  TIP3      OH2           -16.5536021011        9.3852840366       28.1218105659  TIP3      1375            0.0000000000
     17924      1475  TIP3      H1            -16.9389281176        9.5555872830       27.2561031329  TIP3      1375            0.0000000000
     17925      1475  TIP3      H2            -17.0182407241        8.5575297070       28.3892156191  TIP3      1375            0.0000000000
     17926      1476  TIP3      OH2           -15.1802665346        8.8486302208       23.8857522288  TIP3      1376            0.0000000000
     17927      1476  TIP3      H1            -15.7025932747        9.6272765999       24.1151321973  TIP3      1376            0.0000000000
     17928      1476  TIP3      H2            -15.6741395299        8.1279228156       24.3254874866  TIP3      1376            0.0000000000
     17929      1477  TIP3      OH2           -27.4980339818       25.4182262073       23.9119931645  TIP3      1377            0.0000000000
     17930      1477  TIP3      H1            -28.4717192561       25.4092683931       23.9687653179  TIP3      1377            0.0000000000
     17931      1477  TIP3      H2            -27.3506125416       26.3085140710       23.5324586989  TIP3      1377            0.0000000000
     17932      1478  TIP3      OH2           -26.1875741473       10.9857226931       21.2275138506  TIP3      1378            0.0000000000
     17933      1478  TIP3      H1            -25.4787181670       10.6879164997       20.6559469558  TIP3      1378            0.0000000000
     17934      1478  TIP3      H2            -25.6426480790       11.2476151763       22.0046014560  TIP3      1378            0.0000000000
     17935      1479  TIP3      OH2           -20.8024695215       11.4238578962       23.4358551989  TIP3      1379            0.0000000000
     17936      1479  TIP3      H1            -20.4639026204       10.9022424859       24.1815277078  TIP3      1379            0.0000000000
     17937      1479  TIP3      H2            -20.6090988196       12.3094993448       23.7777334179  TIP3      1379            0.0000000000
     17938      1480  TIP3      OH2           -12.6008993914       25.7767859436       25.1884248633  TIP3      1380            0.0000000000
     17939      1480  TIP3      H1            -12.8307869164       24.9626279187       24.6820869395  TIP3      1380            0.0000000000
     17940      1480  TIP3      H2            -12.4592006954       26.4161666316       24.4529123286  TIP3      1380            0.0000000000
     17941      1481  TIP3      OH2           -26.9238119486        9.8470774394       36.1490172658  TIP3      1381            0.0000000000
     17942      1481  TIP3      H1            -27.4342713676        9.0371612950       36.3315309226  TIP3      1381            0.0000000000
     17943      1481  TIP3      H2            -26.1631440276        9.6848586035       36.7487773708  TIP3      1381            0.0000000000
     17944      1482  TIP3      OH2           -25.1825894717        9.3585902662       38.2516118862  TIP3      1382            0.0000000000
     17945      1482  TIP3      H1            -24.3064763173        9.0315845069       37.9836532776  TIP3      1382            0.0000000000
     17946      1482  TIP3      H2            -25.5656039888        8.5681491963       38.6737478889  TIP3      1382            0.0000000000
     17947      1483  TIP3      OH2           -16.6348410364        8.4957831692       38.4997272155  TIP3      1383            0.0000000000
     17948      1483  TIP3      H1            -16.4836264731        8.1071266388       39.3886221918  TIP3      1383            0.0000000000
     17949      1483  TIP3      H2            -15.8080435493        8.2258117434       38.0467564413  TIP3      1383            0.0000000000
     17950      1484  TIP3      OH2           -13.1420694356       24.5758823577       36.8558271282  TIP3      1384            0.0000000000
     17951      1484  TIP3      H1            -13.7669376502       24.7185575569       36.1032794088  TIP3      1384            0.0000000000
     17952      1484  TIP3      H2            -13.2234055126       25.4393441004       37.3079890889  TIP3      1384            0.0000000000
     17953      1485  TIP3      OH2             1.5836458930       18.3805781235       26.8421632328  TIP3      1385            0.0000000000
     17954      1485  TIP3      H1              1.6869980758       19.2415022374       27.2808847590  TIP3      1385            0.0000000000
     17955      1485  TIP3      H2              0.7509213430       18.5265622474       26.3588301214  TIP3      1385            0.0000000000
     17956      1486  TIP3      OH2             0.2304165134       17.1765272872       30.1288121233  TIP3      1386            0.0000000000
     17957      1486  TIP3      H1              0.2275430076       16.7027194951       30.9862174731  TIP3      1386            0.0000000000
     17958      1486  TIP3      H2             -0.6524175172       17.0318927798       29.7550884627  TIP3      1386            0.0000000000
     17959      1487  TIP3      OH2            -7.7306664361       17.3129260068       31.3468115327  TIP3      1387            0.0000000000
     17960      1487  TIP3      H1             -7.9068354202       16.4947213730       31.8339182593  TIP3      1387            0.0000000000
     17961      1487  TIP3      H2             -6.9463350091       17.6053689924       31.8370919435  TIP3      1387            0.0000000000
     17962      1488  TIP3      OH2             3.5641348830       20.4574794498       28.9005342963  TIP3      1388            0.0000000000
     17963      1488  TIP3      H1              3.3715155117       19.7462261861       29.5439014766  TIP3      1388            0.0000000000
     17964      1488  TIP3      H2              3.6108428287       21.2449644875       29.4605320692  TIP3      1388            0.0000000000
     17965      1489  TIP3      OH2            -6.6928324300       21.9043742843       29.8038236337  TIP3      1389            0.0000000000
     17966      1489  TIP3      H1             -7.0217656076       20.9913695008       29.6819832966  TIP3      1389            0.0000000000
     17967      1489  TIP3      H2             -5.7404486244       21.7291154320       29.7322544900  TIP3      1389            0.0000000000
     17968      1490  TIP3      OH2            -9.8626326538       15.0222436730       25.4362611242  TIP3      1390            0.0000000000
     17969      1490  TIP3      H1             -9.8845806849       15.9676890845       25.6683052692  TIP3      1390            0.0000000000
     17970      1490  TIP3      H2            -10.7169338825       14.7300116796       25.7790709058  TIP3      1390            0.0000000000
     17971      1491  TIP3      OH2            -9.5051645972       17.5052936967       28.1434070593  TIP3      1391            0.0000000000
     17972      1491  TIP3      H1             -9.0154177356       16.7001131391       28.4436070275  TIP3      1391            0.0000000000
     17973      1491  TIP3      H2             -8.8462833375       18.2166230330       28.2395017386  TIP3      1391            0.0000000000
     17974      1492  TIP3      OH2             0.7241190841       25.7339376318       28.7006638806  TIP3      1392            0.0000000000
     17975      1492  TIP3      H1              1.3188475490       25.1741584755       28.1401882957  TIP3      1392            0.0000000000
     17976      1492  TIP3      H2              0.5850712235       25.1005945229       29.4160447003  TIP3      1392            0.0000000000
     17977      1493  TIP3      OH2            -1.8410081664       20.2867169254       31.1820300472  TIP3      1393            0.0000000000
     17978      1493  TIP3      H1             -1.4775187253       20.0304265735       30.3246133387  TIP3      1393            0.0000000000
     17979      1493  TIP3      H2             -1.0142330874       20.2864200669       31.7201243470  TIP3      1393            0.0000000000
     17980      1494  TIP3      OH2             6.9023506037       11.5634907802       30.9798865543  TIP3      1394            0.0000000000
     17981      1494  TIP3      H1              7.0742992050       11.9420671986       31.8669882304  TIP3      1394            0.0000000000
     17982      1494  TIP3      H2              7.7282745449       11.7898084649       30.5241262276  TIP3      1394            0.0000000000
     17983      1495  TIP3      OH2             1.9610317691       14.4606866638       31.3646302455  TIP3      1395            0.0000000000
     17984      1495  TIP3      H1              2.0450304472       13.5261185813       31.6064043777  TIP3      1395            0.0000000000
     17985      1495  TIP3      H2              2.0591823951       14.3628479215       30.3961043410  TIP3      1395            0.0000000000
     17986      1496  TIP3      OH2            -5.2840088935       12.2902669858       28.0104067134  TIP3      1396            0.0000000000
     17987      1496  TIP3      H1             -5.1544554744       13.0809365859       27.4445728249  TIP3      1396            0.0000000000
     17988      1496  TIP3      H2             -5.6589534762       11.6907063254       27.3325781333  TIP3      1396            0.0000000000
     17989      1497  TIP3      OH2             2.1502795052       12.6835710560       26.6471071824  TIP3      1397            0.0000000000
     17990      1497  TIP3      H1              2.6511887396       12.5500779746       27.4852995053  TIP3      1397            0.0000000000
     17991      1497  TIP3      H2              2.5234582057       13.5252197518       26.3442561715  TIP3      1397            0.0000000000
     17992      1498  TIP3      OH2            -8.4827403602       15.1861510548       29.0929966166  TIP3      1398            0.0000000000
     17993      1498  TIP3      H1             -7.8407343835       14.7827142782       29.7012878879  TIP3      1398            0.0000000000
     17994      1498  TIP3      H2             -8.2818440209       14.6684657829       28.2908511782  TIP3      1398            0.0000000000
     17995      1499  TIP3      OH2            -4.0453964881       16.1721995861       28.3785399914  TIP3      1399            0.0000000000
     17996      1499  TIP3      H1             -3.1567800698       15.7456997279       28.3138377023  TIP3      1399            0.0000000000
     17997      1499  TIP3      H2             -4.6014134762       15.4914068473       27.9523914478  TIP3      1399            0.0000000000
     17998      1500  TIP3      OH2             7.0607817637       12.6945979156       33.5989143797  TIP3      1400            0.0000000000
     17999      1500  TIP3      H1              6.7920665053       13.5618828078       33.1963206904  TIP3      1400            0.0000000000
     18000      1500  TIP3      H2              7.6475693301       12.9969527165       34.3085543158  TIP3      1400            0.0000000000
     18001      1501  TIP3      OH2            -6.2179020542       11.5975132949       32.3612055458  TIP3      1401            0.0000000000
     18002      1501  TIP3      H1             -6.5513134562       12.1109964333       31.5968929279  TIP3      1401            0.0000000000
     18003      1501  TIP3      H2             -6.8111136936       11.9210987555       33.0672404644  TIP3      1401            0.0000000000
     18004      1502  TIP3      OH2             0.4603696051       20.9750602913       25.6853328190  TIP3      1402            0.0000000000
     18005      1502  TIP3      H1              0.3909432140       21.1620937707       24.7318274370  TIP3      1402            0.0000000000
     18006      1502  TIP3      H2              0.3729339923       21.8779617416       26.0500345502  TIP3      1402            0.0000000000
     18007      1503  TIP3      OH2            -4.1778274998       19.1143365496       32.2174346801  TIP3      1403            0.0000000000
     18008      1503  TIP3      H1             -4.8255232944       19.8186569554       32.4136703384  TIP3      1403            0.0000000000
     18009      1503  TIP3      H2             -3.4000024133       19.6331934798       31.9180824326  TIP3      1403            0.0000000000
     18010      1504  TIP3      OH2             3.7415293573       12.5761392160       28.7796774340  TIP3      1404            0.0000000000
     18011      1504  TIP3      H1              3.5335899609       11.8321222857       29.3604035272  TIP3      1404            0.0000000000
     18012      1504  TIP3      H2              4.7008037356       12.4756792331       28.6913239091  TIP3      1404            0.0000000000
     18013      1505  TIP3      OH2            -6.7195305070       13.3992421564       30.2853058485  TIP3      1405            0.0000000000
     18014      1505  TIP3      H1             -6.0356041420       13.9777036655       30.6905951896  TIP3      1405            0.0000000000
     18015      1505  TIP3      H2             -6.2666999214       13.0694222475       29.4764981200  TIP3      1405            0.0000000000
     18016      1506  TIP3      OH2            -5.3511907109       21.4713020965       32.9969484236  TIP3      1406            0.0000000000
     18017      1506  TIP3      H1             -5.4979869914       22.3817041077       32.7022332914  TIP3      1406            0.0000000000
     18018      1506  TIP3      H2             -6.1636287062       21.3381359767       33.5446689039  TIP3      1406            0.0000000000
     18019      1507  TIP3      OH2            -9.7083137784       20.7263939199       24.2019799131  TIP3      1407            0.0000000000
     18020      1507  TIP3      H1             -9.4100525551       21.4637749497       23.6516071050  TIP3      1407            0.0000000000
     18021      1507  TIP3      H2             -9.4902922017       21.1084780477       25.0627792441  TIP3      1407            0.0000000000
     18022      1508  TIP3      OH2             4.3795431287       22.8718829993       30.7690171316  TIP3      1408            0.0000000000
     18023      1508  TIP3      H1              3.4464747092       22.8970498346       31.0760477166  TIP3      1408            0.0000000000
     18024      1508  TIP3      H2              4.3947898732       23.5983851056       30.1410627175  TIP3      1408            0.0000000000
     18025      1509  TIP3      OH2             4.1245830727       10.7532561833       32.0851752150  TIP3      1409            0.0000000000
     18026      1509  TIP3      H1              3.2923981978       10.9877506358       31.6350446133  TIP3      1409            0.0000000000
     18027      1509  TIP3      H2              4.8112527763       11.2307765520       31.5829219715  TIP3      1409            0.0000000000
     18028      1510  TIP3      OH2            -2.8154947760        8.8792693858       29.6012270415  TIP3      1410            0.0000000000
     18029      1510  TIP3      H1             -3.0274573682        7.9450516708       29.7615656274  TIP3      1410            0.0000000000
     18030      1510  TIP3      H2             -3.6735900925        9.2915570763       29.9009352758  TIP3      1410            0.0000000000
     18031      1511  TIP3      OH2             2.4567201229       24.2485058741       27.4236797215  TIP3      1411            0.0000000000
     18032      1511  TIP3      H1              2.6389660306       23.4461190763       26.8902439215  TIP3      1411            0.0000000000
     18033      1511  TIP3      H2              3.0963392019       24.8676472615       27.0054144018  TIP3      1411            0.0000000000
     18034      1512  TIP3      OH2             3.5684780278       22.1762214101       26.0869995643  TIP3      1412            0.0000000000
     18035      1512  TIP3      H1              3.6196263455       21.5029320419       25.3910290946  TIP3      1412            0.0000000000
     18036      1512  TIP3      H2              3.6578116102       21.5973669926       26.8632904880  TIP3      1412            0.0000000000
     18037      1513  TIP3      OH2             5.2553730861       20.7951439190       34.6754572392  TIP3      1413            0.0000000000
     18038      1513  TIP3      H1              5.5199947975       20.1097389737       34.0252477041  TIP3      1413            0.0000000000
     18039      1513  TIP3      H2              5.3505707924       21.5927325194       34.1134810965  TIP3      1413            0.0000000000
     18040      1514  TIP3      OH2            -0.0728987688       17.8360094686       24.2022927820  TIP3      1414            0.0000000000
     18041      1514  TIP3      H1             -0.6595252165       18.5662746424       23.9329721512  TIP3      1414            0.0000000000
     18042      1514  TIP3      H2              0.7813060113       18.1306161644       23.8734316393  TIP3      1414            0.0000000000
     18043      1515  TIP3      OH2             7.2997145475       17.2838396048       32.3637736950  TIP3      1415            0.0000000000
     18044      1515  TIP3      H1              6.6318442476       17.9864758881       32.5227503857  TIP3      1415            0.0000000000
     18045      1515  TIP3      H2              7.7929727108       17.6935079091       31.6226546909  TIP3      1415            0.0000000000
     18046      1516  TIP3      OH2             3.5538404411       17.3450330487       25.1391606595  TIP3      1416            0.0000000000
     18047      1516  TIP3      H1              2.8006070427       17.6601015622       25.6920715254  TIP3      1416            0.0000000000
     18048      1516  TIP3      H2              4.2011354193       17.1307368519       25.8600160153  TIP3      1416            0.0000000000
     18049      1517  TIP3      OH2             3.5853262693       15.9953936229       34.5072197869  TIP3      1417            0.0000000000
     18050      1517  TIP3      H1              3.7324059900       16.8621863224       34.9283825622  TIP3      1417            0.0000000000
     18051      1517  TIP3      H2              2.7991542314       16.1906846917       33.9647662294  TIP3      1417            0.0000000000
     18052      1518  TIP3      OH2            -5.0988621878       18.2357982944       27.1260976325  TIP3      1418            0.0000000000
     18053      1518  TIP3      H1             -5.4981398981       17.8731248342       26.3089550657  TIP3      1418            0.0000000000
     18054      1518  TIP3      H2             -4.5310799760       17.4947575008       27.4387760636  TIP3      1418            0.0000000000
     18055      1519  TIP3      OH2            -3.6507625048       21.7887174546       29.8419060499  TIP3      1419            0.0000000000
     18056      1519  TIP3      H1             -3.5283273514       21.3568174880       28.9830381929  TIP3      1419            0.0000000000
     18057      1519  TIP3      H2             -2.9509700558       21.3609987532       30.3870766125  TIP3      1419            0.0000000000
     18058      1520  TIP3      OH2            -4.8503336769       16.9724869290       30.8371469278  TIP3      1420            0.0000000000
     18059      1520  TIP3      H1             -4.6124622829       17.0195135943       29.8832991214  TIP3      1420            0.0000000000
     18060      1520  TIP3      H2             -4.4324256370       17.7723795137       31.2248109410  TIP3      1420            0.0000000000
     18061      1521  TIP3      OH2             1.8999189340       22.8166639915       31.6929507819  TIP3      1421            0.0000000000
     18062      1521  TIP3      H1              1.6824431616       23.4315154874       32.4221198625  TIP3      1421            0.0000000000
     18063      1521  TIP3      H2              1.5720019160       21.9694131931       32.0492538874  TIP3      1421            0.0000000000
     18064      1522  TIP3      OH2            -3.5263522849       21.7312084325       35.0335220868  TIP3      1422            0.0000000000
     18065      1522  TIP3      H1             -4.1735007414       22.3358088097       35.4597323093  TIP3      1422            0.0000000000
     18066      1522  TIP3      H2             -4.0067765292       21.5630863189       34.1909476089  TIP3      1422            0.0000000000
     18067      1523  TIP3      OH2            -6.7180362300       17.8883106343       34.2652565436  TIP3      1423            0.0000000000
     18068      1523  TIP3      H1             -6.5882668062       18.7897338009       34.5887660394  TIP3      1423            0.0000000000
     18069      1523  TIP3      H2             -7.4516123237       17.6035883320       34.8390307249  TIP3      1423            0.0000000000
     18070      1524  TIP3      OH2            -0.1434290434       23.8267446204       26.0720343205  TIP3      1424            0.0000000000
     18071      1524  TIP3      H1              0.0384519262       24.5516760803       26.6940003811  TIP3      1424            0.0000000000
     18072      1524  TIP3      H2             -0.6330538248       24.2533914728       25.3524737632  TIP3      1424            0.0000000000
     18073      1525  TIP3      OH2            -5.4414319589       23.3178301836       36.4065128632  TIP3      1425            0.0000000000
     18074      1525  TIP3      H1             -5.7264004375       23.7291072595       35.5665055570  TIP3      1425            0.0000000000
     18075      1525  TIP3      H2             -6.3066432748       22.9962474670       36.7536151787  TIP3      1425            0.0000000000
     18076      1526  TIP3      OH2             5.8510357222        8.4059691331       23.4900385277  TIP3      1426            0.0000000000
     18077      1526  TIP3      H1              4.9591565751        8.6752063320       23.7970666080  TIP3      1426            0.0000000000
     18078      1526  TIP3      H2              6.1725457425        9.2648321271       23.1530692463  TIP3      1426            0.0000000000
     18079      1527  TIP3      OH2            -6.4813653703       17.2011934418       24.7860035652  TIP3      1427            0.0000000000
     18080      1527  TIP3      H1             -6.4942699937       18.0310491600       24.2555282045  TIP3      1427            0.0000000000
     18081      1527  TIP3      H2             -7.3918473663       16.8992010766       24.7011340354  TIP3      1427            0.0000000000
     18082      1528  TIP3      OH2             6.7138032457       23.5980191786       21.1946793101  TIP3      1428            0.0000000000
     18083      1528  TIP3      H1              7.4942615997       24.1659104263       21.1377716021  TIP3      1428            0.0000000000
     18084      1528  TIP3      H2              6.4398796868       23.5532632481       20.2683705053  TIP3      1428            0.0000000000
     18085      1529  TIP3      OH2            -9.9422324445       20.1966997540       33.4701294039  TIP3      1429            0.0000000000
     18086      1529  TIP3      H1            -10.3869977979       20.1288134351       32.6037883471  TIP3      1429            0.0000000000
     18087      1529  TIP3      H2             -9.6031724233       19.2791876658       33.5745062772  TIP3      1429            0.0000000000
     18088      1530  TIP3      OH2           -10.1421763721       22.7222240520       30.3538392002  TIP3      1430            0.0000000000
     18089      1530  TIP3      H1             -9.1763874834       22.6629439224       30.3031312384  TIP3      1430            0.0000000000
     18090      1530  TIP3      H2            -10.2041168162       23.4035747638       31.0368842878  TIP3      1430            0.0000000000
     18091      1531  TIP3      OH2             7.8942282024       23.3763169231       35.9253029241  TIP3      1431            0.0000000000
     18092      1531  TIP3      H1              7.8281649266       22.4167453376       36.0535265795  TIP3      1431            0.0000000000
     18093      1531  TIP3      H2              7.0206944663       23.6566235359       36.2977058027  TIP3      1431            0.0000000000
     18094      1532  TIP3      OH2            -1.0162590013       22.8837189119       35.1105061353  TIP3      1432            0.0000000000
     18095      1532  TIP3      H1             -1.0462734406       23.7589826469       35.5529598195  TIP3      1432            0.0000000000
     18096      1532  TIP3      H2             -1.9188679727       22.5167526414       35.2312214400  TIP3      1432            0.0000000000
     18097      1533  TIP3      OH2            -0.5509484397       26.8805679527       24.5967703718  TIP3      1433            0.0000000000
     18098      1533  TIP3      H1             -1.4040815661       26.8277688115       24.1531722699  TIP3      1433            0.0000000000
     18099      1533  TIP3      H2             -0.6561814109       27.6545594316       25.2011086932  TIP3      1433            0.0000000000
     18100      1534  TIP3      OH2            -6.9423895450       25.3130096252       26.8208562744  TIP3      1434            0.0000000000
     18101      1534  TIP3      H1             -6.6259227113       25.0621816322       27.7095582497  TIP3      1434            0.0000000000
     18102      1534  TIP3      H2             -7.8009243934       24.8308562040       26.8194567011  TIP3      1434            0.0000000000
     18103      1535  TIP3      OH2             2.1306520543       25.8850159599       24.2405682098  TIP3      1435            0.0000000000
     18104      1535  TIP3      H1              1.1705561432       25.9997303881       24.3948299633  TIP3      1435            0.0000000000
     18105      1535  TIP3      H2              2.2273022817       24.9226905638       24.2171328818  TIP3      1435            0.0000000000
     18106      1536  TIP3      OH2             4.8535818015       14.5353791969       36.8779878103  TIP3      1436            0.0000000000
     18107      1536  TIP3      H1              4.2180668275       14.7751683110       36.1778378367  TIP3      1436            0.0000000000
     18108      1536  TIP3      H2              4.8548075765       13.5557428633       36.8669109557  TIP3      1436            0.0000000000
     18109      1537  TIP3      OH2            -7.5607527702       21.2282635343       34.5213193043  TIP3      1437            0.0000000000
     18110      1537  TIP3      H1             -7.5293080101       20.7438446362       35.3795630114  TIP3      1437            0.0000000000
     18111      1537  TIP3      H2             -8.4402038899       20.9720972601       34.1656247725  TIP3      1437            0.0000000000
     18112      1538  TIP3      OH2            -5.0185606536        9.9674943730       30.5916391755  TIP3      1438            0.0000000000
     18113      1538  TIP3      H1             -5.9034870632        9.9612928361       30.1633662162  TIP3      1438            0.0000000000
     18114      1538  TIP3      H2             -5.2526738430       10.4240346283       31.4282290436  TIP3      1438            0.0000000000
     18115      1539  TIP3      OH2            -0.2583612947        9.4113995801       33.7234810873  TIP3      1439            0.0000000000
     18116      1539  TIP3      H1              0.0348297076        8.9818687522       34.5580185421  TIP3      1439            0.0000000000
     18117      1539  TIP3      H2             -1.2395179625        9.3894721438       33.8051610872  TIP3      1439            0.0000000000
     18118      1540  TIP3      OH2             2.6201306875       13.3149502350       34.8102570722  TIP3      1440            0.0000000000
     18119      1540  TIP3      H1              1.9472857476       13.1278868365       35.5201351612  TIP3      1440            0.0000000000
     18120      1540  TIP3      H2              2.4366595208       14.2457095223       34.6158524989  TIP3      1440            0.0000000000
     18121      1541  TIP3      OH2            -0.6407263049       12.3888302875       21.2995386388  TIP3      1441            0.0000000000
     18122      1541  TIP3      H1             -1.1195919837       12.0773140258       22.1063795425  TIP3      1441            0.0000000000
     18123      1541  TIP3      H2             -0.5393041038       11.5599286159       20.8187148232  TIP3      1441            0.0000000000
     18124      1542  TIP3      OH2            -4.8644962043       14.5690910018       31.9106941854  TIP3      1442            0.0000000000
     18125      1542  TIP3      H1             -5.6650560793       14.7197201993       32.4565375242  TIP3      1442            0.0000000000
     18126      1542  TIP3      H2             -4.7389966123       15.4665568997       31.5208470369  TIP3      1442            0.0000000000
     18127      1543  TIP3      OH2            -5.3691618367       14.6609221197       26.5199600369  TIP3      1443            0.0000000000
     18128      1543  TIP3      H1             -6.3499053336       14.5475915960       26.5581463167  TIP3      1443            0.0000000000
     18129      1543  TIP3      H2             -5.2690114759       15.3577256212       25.8503509184  TIP3      1443            0.0000000000
     18130      1544  TIP3      OH2             0.4701135850       15.6949166996       25.7160879310  TIP3      1444            0.0000000000
     18131      1544  TIP3      H1              0.1014748049       16.5285484332       25.3455007415  TIP3      1444            0.0000000000
     18132      1544  TIP3      H2              1.0315422682       15.4371108060       24.9558553012  TIP3      1444            0.0000000000
     18133      1545  TIP3      OH2            -1.0567617322       15.8631907393       36.9472634768  TIP3      1445            0.0000000000
     18134      1545  TIP3      H1             -1.3057180169       14.9641209638       37.2574119846  TIP3      1445            0.0000000000
     18135      1545  TIP3      H2             -0.1245773223       15.9036694430       37.2111498566  TIP3      1445            0.0000000000
     18136      1546  TIP3      OH2             1.8782712265       14.8592399266       28.5432506187  TIP3      1446            0.0000000000
     18137      1546  TIP3      H1              1.4780042092       15.6964687482       28.2509129843  TIP3      1446            0.0000000000
     18138      1546  TIP3      H2              1.5665411179       14.2585280171       27.8551885822  TIP3      1446            0.0000000000
     18139      1547  TIP3      OH2            -7.4901591557       14.7386227961       33.0327853589  TIP3      1447            0.0000000000
     18140      1547  TIP3      H1             -7.0908654187       15.0328814650       33.8715823559  TIP3      1447            0.0000000000
     18141      1547  TIP3      H2             -7.8759155071       13.8776054181       33.3028796715  TIP3      1447            0.0000000000
     18142      1548  TIP3      OH2           -10.5136311398       11.8677939801       27.5580935269  TIP3      1448            0.0000000000
     18143      1548  TIP3      H1             -9.8272811567       11.8335558205       28.2362366570  TIP3      1448            0.0000000000
     18144      1548  TIP3      H2            -10.0214619926       11.7724925629       26.7168365585  TIP3      1448            0.0000000000
     18145      1549  TIP3      OH2            -9.6393807858       12.6561969271       22.7006414180  TIP3      1449            0.0000000000
     18146      1549  TIP3      H1             -8.8082364289       13.1304721918       22.5682148878  TIP3      1449            0.0000000000
     18147      1549  TIP3      H2            -10.0818316507       13.2235482105       23.3524908720  TIP3      1449            0.0000000000
     18148      1550  TIP3      OH2             0.7659379548       16.3970865583       32.8777731273  TIP3      1450            0.0000000000
     18149      1550  TIP3      H1              1.2809784491       15.7343723359       32.3693592085  TIP3      1450            0.0000000000
     18150      1550  TIP3      H2              0.1881354075       15.8178823131       33.4282748514  TIP3      1450            0.0000000000
     18151      1551  TIP3      OH2            -2.2600565626       12.3843890909       27.5856565527  TIP3      1451            0.0000000000
     18152      1551  TIP3      H1             -3.1441950493       12.1967605187       27.9336614060  TIP3      1451            0.0000000000
     18153      1551  TIP3      H2             -1.6659486546       11.7992346033       28.0920438887  TIP3      1451            0.0000000000
     18154      1552  TIP3      OH2            -7.8250300698       13.8053238908       26.7298829427  TIP3      1452            0.0000000000
     18155      1552  TIP3      H1             -8.5168439575       14.0984726130       26.0964869618  TIP3      1452            0.0000000000
     18156      1552  TIP3      H2             -7.5581859570       12.9268570510       26.3664135604  TIP3      1452            0.0000000000
     18157      1553  TIP3      OH2            -3.5481176328       14.4527758280       23.4681737127  TIP3      1453            0.0000000000
     18158      1553  TIP3      H1             -2.9045772701       14.1004268247       24.1236713250  TIP3      1453            0.0000000000
     18159      1553  TIP3      H2             -3.7478458935       15.2977387790       23.8795843204  TIP3      1453            0.0000000000
     18160      1554  TIP3      OH2             1.7988187168       11.4199377746       30.8682136482  TIP3      1454            0.0000000000
     18161      1554  TIP3      H1              0.9589243559       11.2681787900       31.3324148057  TIP3      1454            0.0000000000
     18162      1554  TIP3      H2              1.7522276031       10.8240313087       30.0915010592  TIP3      1454            0.0000000000
     18163      1555  TIP3      OH2             4.7359360917       27.2368427154       37.4290261812  TIP3      1455            0.0000000000
     18164      1555  TIP3      H1              4.7783563370       27.1610283277       36.4603852832  TIP3      1455            0.0000000000
     18165      1555  TIP3      H2              5.5889794393       27.6503092959       37.6380101275  TIP3      1455            0.0000000000
     18166      1556  TIP3      OH2            -7.2835340396       19.6091968834       36.7953227775  TIP3      1456            0.0000000000
     18167      1556  TIP3      H1             -6.5759368293       19.8776161092       37.4050101689  TIP3      1456            0.0000000000
     18168      1556  TIP3      H2             -8.0753808714       19.5864302174       37.3785089162  TIP3      1456            0.0000000000
     18169      1557  TIP3      OH2            -1.7575902424       14.9415474135       28.7635860807  TIP3      1457            0.0000000000
     18170      1557  TIP3      H1             -0.8139237462       14.8846419640       28.9470738872  TIP3      1457            0.0000000000
     18171      1557  TIP3      H2             -2.1226237996       14.2262393700       29.3254626168  TIP3      1457            0.0000000000
     18172      1558  TIP3      OH2            -6.8387633457       11.3210636625       25.9336797402  TIP3      1458            0.0000000000
     18173      1558  TIP3      H1             -7.2599132707       10.5736360650       26.4134002216  TIP3      1458            0.0000000000
     18174      1558  TIP3      H2             -6.7949910792       10.9732754007       25.0301912602  TIP3      1458            0.0000000000
     18175      1559  TIP3      OH2            -2.4229257146       13.3702132983       31.5847804586  TIP3      1459            0.0000000000
     18176      1559  TIP3      H1             -3.2722770776       13.8490152908       31.6564535028  TIP3      1459            0.0000000000
     18177      1559  TIP3      H2             -1.8748090876       13.8528092192       32.2183377326  TIP3      1459            0.0000000000
     18178      1560  TIP3      OH2            -2.2434250697       19.5425548904       23.7560590179  TIP3      1460            0.0000000000
     18179      1560  TIP3      H1             -3.0355741347       19.0083255778       23.6351036626  TIP3      1460            0.0000000000
     18180      1560  TIP3      H2             -2.4356428706       19.9312801479       24.6464632418  TIP3      1460            0.0000000000
     18181      1561  TIP3      OH2             5.4945920900       19.1356825954       32.6229329612  TIP3      1461            0.0000000000
     18182      1561  TIP3      H1              5.8869898966       19.6946606498       31.9165590291  TIP3      1461            0.0000000000
     18183      1561  TIP3      H2              4.5896955190       19.0398426072       32.2800981782  TIP3      1461            0.0000000000
     18184      1562  TIP3      OH2             1.9501034170       12.6905047417       22.0728774832  TIP3      1462            0.0000000000
     18185      1562  TIP3      H1              1.1086421228       12.6477961632       21.5812234623  TIP3      1462            0.0000000000
     18186      1562  TIP3      H2              2.2143572814       13.5870938900       21.8436971429  TIP3      1462            0.0000000000
     18187      1563  TIP3      OH2            -0.8193739123       20.0399763365       34.9997808049  TIP3      1463            0.0000000000
     18188      1563  TIP3      H1             -1.0845413689       19.9505440383       35.9260142352  TIP3      1463            0.0000000000
     18189      1563  TIP3      H2             -1.0093883844       20.9796912682       34.8636350194  TIP3      1463            0.0000000000
     18190      1564  TIP3      OH2             2.2850870895       15.3913808970       23.7148298764  TIP3      1464            0.0000000000
     18191      1564  TIP3      H1              2.8508957602       14.6030216243       23.7938597790  TIP3      1464            0.0000000000
     18192      1564  TIP3      H2              2.7881628756       16.0391807122       24.2434315800  TIP3      1464            0.0000000000
     18193      1565  TIP3      OH2            -6.7870123439       19.1756277015       29.2021207689  TIP3      1465            0.0000000000
     18194      1565  TIP3      H1             -6.2289428221       18.9766099002       28.4269457089  TIP3      1465            0.0000000000
     18195      1565  TIP3      H2             -6.6397139462       18.4233375700       29.7987100547  TIP3      1465            0.0000000000
     18196      1566  TIP3      OH2            -0.1292143198       21.2176124599       22.9336835978  TIP3      1466            0.0000000000
     18197      1566  TIP3      H1             -0.5148646981       22.1111891866       23.0055669256  TIP3      1466            0.0000000000
     18198      1566  TIP3      H2             -0.8918621289       20.6262237208       23.0784493460  TIP3      1466            0.0000000000
     18199      1567  TIP3      OH2            -9.6645524987       17.6544721290       34.6829820959  TIP3      1467            0.0000000000
     18200      1567  TIP3      H1             -9.6549127989       17.0883958023       35.4739614516  TIP3      1467            0.0000000000
     18201      1567  TIP3      H2            -10.1566461764       17.1037290161       34.0467859334  TIP3      1467            0.0000000000
     18202      1568  TIP3      OH2            -3.3937190346       17.1379637286       36.6539778109  TIP3      1468            0.0000000000
     18203      1568  TIP3      H1             -3.6295593002       16.4332957381       36.0344447355  TIP3      1468            0.0000000000
     18204      1568  TIP3      H2             -2.4730563469       16.8737193348       36.8604852273  TIP3      1468            0.0000000000
     18205      1569  TIP3      OH2             2.0239532096       22.5874358176       35.1433961911  TIP3      1469            0.0000000000
     18206      1569  TIP3      H1              1.1202556656       22.7010530020       34.8094358205  TIP3      1469            0.0000000000
     18207      1569  TIP3      H2              1.8349284750       22.7628189950       36.0889524724  TIP3      1469            0.0000000000
     18208      1570  TIP3      OH2             7.0536302869       14.9100182177       23.5257797793  TIP3      1470            0.0000000000
     18209      1570  TIP3      H1              6.8966381880       14.3897421312       22.7291059044  TIP3      1470            0.0000000000
     18210      1570  TIP3      H2              7.3220485107       15.7721670640       23.1578676609  TIP3      1470            0.0000000000
     18211      1571  TIP3      OH2             7.7067594168       20.5029425339       35.8405366791  TIP3      1471            0.0000000000
     18212      1571  TIP3      H1              6.7862080089       20.6739938856       35.5286036172  TIP3      1471            0.0000000000
     18213      1571  TIP3      H2              8.1792847775       20.4483054291       34.9735069839  TIP3      1471            0.0000000000
     18214      1572  TIP3      OH2             5.7002824453       22.8295820690       23.8052739543  TIP3      1472            0.0000000000
     18215      1572  TIP3      H1              4.8651473970       22.3679126333       23.6329553469  TIP3      1472            0.0000000000
     18216      1572  TIP3      H2              6.0194197617       23.1258214434       22.9277822146  TIP3      1472            0.0000000000
     18217      1573  TIP3      OH2             2.9241791225       18.3021259128       30.6269646973  TIP3      1473            0.0000000000
     18218      1573  TIP3      H1              2.0562720605       17.9584956776       30.3398483169  TIP3      1473            0.0000000000
     18219      1573  TIP3      H2              3.5387939480       17.6583372419       30.2074005136  TIP3      1473            0.0000000000
     18220      1574  TIP3      OH2            -4.6680193474       22.6191908105       26.6078780695  TIP3      1474            0.0000000000
     18221      1574  TIP3      H1             -4.4922347628       23.5685463576       26.6577315924  TIP3      1474            0.0000000000
     18222      1574  TIP3      H2             -5.5708020395       22.6160448295       26.2717419213  TIP3      1474            0.0000000000
     18223      1575  TIP3      OH2            -3.2257733021       20.2630111841       26.3037125329  TIP3      1475            0.0000000000
     18224      1575  TIP3      H1             -3.7006468614       21.1211512921       26.3798231488  TIP3      1475            0.0000000000
     18225      1575  TIP3      H2             -3.7724184451       19.6618975587       26.8330672255  TIP3      1475            0.0000000000
     18226      1576  TIP3      OH2            -2.6762529622       24.5000222012       33.3342769614  TIP3      1476            0.0000000000
     18227      1576  TIP3      H1             -2.0404727473       25.0387008392       32.8193556320  TIP3      1476            0.0000000000
     18228      1576  TIP3      H2             -2.0647353407       24.0411051162       33.9402343196  TIP3      1476            0.0000000000
     18229      1577  TIP3      OH2            -4.4591920946       25.3476403653       25.7212250203  TIP3      1477            0.0000000000
     18230      1577  TIP3      H1             -5.3843897838       25.4265391770       26.0405081242  TIP3      1477            0.0000000000
     18231      1577  TIP3      H2             -4.0543924838       26.0448821832       26.2864003718  TIP3      1477            0.0000000000
     18232      1578  TIP3      OH2             0.5578532846       20.3056274267       32.4387469779  TIP3      1478            0.0000000000
     18233      1578  TIP3      H1              0.2849635005       20.0558437993       33.3487119038  TIP3      1478            0.0000000000
     18234      1578  TIP3      H2              1.2062491083       19.6099422058       32.2254576410  TIP3      1478            0.0000000000
     18235      1579  TIP3      OH2             3.8984347689       25.0076388652       34.8368787493  TIP3      1479            0.0000000000
     18236      1579  TIP3      H1              3.1024474148       24.4373852399       34.8900636657  TIP3      1479            0.0000000000
     18237      1579  TIP3      H2              3.7315729423       25.5681133889       34.0455808899  TIP3      1479            0.0000000000
     18238      1580  TIP3      OH2            -7.8552403436       12.4224649754       34.3832208359  TIP3      1480            0.0000000000
     18239      1580  TIP3      H1             -8.4149314463       12.7810538345       35.0899956568  TIP3      1480            0.0000000000
     18240      1580  TIP3      H2             -7.7909118949       11.4947674357       34.6743147569  TIP3      1480            0.0000000000
     18241      1581  TIP3      OH2             4.0273753683       19.8764410089       24.3498815122  TIP3      1481            0.0000000000
     18242      1581  TIP3      H1              3.9093251339       18.9347273898       24.6073174352  TIP3      1481            0.0000000000
     18243      1581  TIP3      H2              4.8982523045       19.8492707868       23.9180639321  TIP3      1481            0.0000000000
     18244      1582  TIP3      OH2            -8.5794395351       23.8325242616       32.4989817112  TIP3      1482            0.0000000000
     18245      1582  TIP3      H1             -7.8774847256       23.2155251842       32.7488251604  TIP3      1482            0.0000000000
     18246      1582  TIP3      H2             -8.6258854617       24.4118842055       33.2727985936  TIP3      1482            0.0000000000
     18247      1583  TIP3      OH2            -4.1086640092       22.0370708084       22.6752345997  TIP3      1483            0.0000000000
     18248      1583  TIP3      H1             -3.4641014049       21.6086445470       23.2445589652  TIP3      1483            0.0000000000
     18249      1583  TIP3      H2             -3.9003110166       22.9842658883       22.7686395924  TIP3      1483            0.0000000000
     18250      1584  TIP3      OH2            -6.6522557457       19.5558629821       23.2823417189  TIP3      1484            0.0000000000
     18251      1584  TIP3      H1             -7.5229625963       19.8170080314       23.6064355537  TIP3      1484            0.0000000000
     18252      1584  TIP3      H2             -6.4748394526       20.2693832224       22.6440755338  TIP3      1484            0.0000000000
     18253      1585  TIP3      OH2             0.3160203711       12.2406320922       33.6963911534  TIP3      1485            0.0000000000
     18254      1585  TIP3      H1              1.2835960477       12.3053012167       33.7858766908  TIP3      1485            0.0000000000
     18255      1585  TIP3      H2              0.1554204786       11.2979550548       33.8840016983  TIP3      1485            0.0000000000
     18256      1586  TIP3      OH2             0.9697945098       11.7516329678       24.4725824181  TIP3      1486            0.0000000000
     18257      1586  TIP3      H1              1.3571923069       12.2294991255       23.7191512317  TIP3      1486            0.0000000000
     18258      1586  TIP3      H2              1.3093682571       12.2779146303       25.2342065054  TIP3      1486            0.0000000000
     18259      1587  TIP3      OH2            -1.1484302891       24.0857225559       22.9030512003  TIP3      1487            0.0000000000
     18260      1587  TIP3      H1             -2.0631804574       24.3211419407       23.1715791649  TIP3      1487            0.0000000000
     18261      1587  TIP3      H2             -1.1844327391       24.1799713846       21.9214393642  TIP3      1487            0.0000000000
     18262      1588  TIP3      OH2            -1.5730716497       13.8074321362       25.3849261272  TIP3      1488            0.0000000000
     18263      1588  TIP3      H1             -0.9139462260       14.4610377082       25.7059463601  TIP3      1488            0.0000000000
     18264      1588  TIP3      H2             -1.8492111621       13.3702141686       26.2245119879  TIP3      1488            0.0000000000
     18265      1589  TIP3      OH2            -0.6103991599       14.7325713252       34.4096013600  TIP3      1489            0.0000000000
     18266      1589  TIP3      H1             -0.7723428800       14.8927724165       35.3576113142  TIP3      1489            0.0000000000
     18267      1589  TIP3      H2             -0.3282786889       13.7852203707       34.3474530544  TIP3      1489            0.0000000000
     18268      1590  TIP3      OH2            -0.8554967985       10.2245500795       25.7076060516  TIP3      1490            0.0000000000
     18269      1590  TIP3      H1             -1.1659967579       10.7908738880       26.4347572543  TIP3      1490            0.0000000000
     18270      1590  TIP3      H2             -0.0860893338       10.7599093596       25.3734458344  TIP3      1490            0.0000000000
     18271      1591  TIP3      OH2            -3.7099685955       24.6809575861       23.2941536983  TIP3      1491            0.0000000000
     18272      1591  TIP3      H1             -4.3576347965       25.1609411725       22.7598721388  TIP3      1491            0.0000000000
     18273      1591  TIP3      H2             -3.9954195680       24.9065133424       24.2162807144  TIP3      1491            0.0000000000
     18274      1592  TIP3      OH2             5.0099307367       12.0318925125       35.5482936783  TIP3      1492            0.0000000000
     18275      1592  TIP3      H1              4.0749455090       12.1606847433       35.2879779080  TIP3      1492            0.0000000000
     18276      1592  TIP3      H2              5.4713410646       12.3566157705       34.7486476123  TIP3      1492            0.0000000000
     18277      1593  TIP3      OH2             4.1773373955       16.1074145645       29.3626125138  TIP3      1493            0.0000000000
     18278      1593  TIP3      H1              3.4490040603       15.4939158221       29.1424051700  TIP3      1493            0.0000000000
     18279      1593  TIP3      H2              4.8362482537       15.5050960846       29.7722377017  TIP3      1493            0.0000000000
     18280      1594  TIP3      OH2            -8.6886522041       14.6827977354       20.8558935760  TIP3      1494            0.0000000000
     18281      1594  TIP3      H1             -8.0371450893       14.9788980007       20.2080009845  TIP3      1494            0.0000000000
     18282      1594  TIP3      H2             -9.0182450842       13.8375281613       20.5109554539  TIP3      1494            0.0000000000
     18283      1595  TIP3      OH2             4.9282179732       25.9506059348       30.9788199055  TIP3      1495            0.0000000000
     18284      1595  TIP3      H1              4.6613052105       26.5574592383       30.2501109234  TIP3      1495            0.0000000000
     18285      1595  TIP3      H2              5.8437009719       25.7582862388       30.7055378182  TIP3      1495            0.0000000000
     18286      1596  TIP3      OH2            -7.5674036253        9.4454009334       29.9247785413  TIP3      1496            0.0000000000
     18287      1596  TIP3      H1             -7.6796374792        9.3185119718       28.9557532809  TIP3      1496            0.0000000000
     18288      1596  TIP3      H2             -7.9827282985        8.6153509359       30.2491402692  TIP3      1496            0.0000000000
     18289      1597  TIP3      OH2            -8.9346173874       23.6420709317       26.0539986950  TIP3      1497            0.0000000000
     18290      1597  TIP3      H1             -9.7148754229       24.1249804997       26.3653032754  TIP3      1497            0.0000000000
     18291      1597  TIP3      H2             -8.9426277383       23.8367232282       25.1076495672  TIP3      1497            0.0000000000
     18292      1598  TIP3      OH2            -9.4880107416       26.1012025490       37.0274119096  TIP3      1498            0.0000000000
     18293      1598  TIP3      H1             -8.5728459728       25.9453179723       37.3157912386  TIP3      1498            0.0000000000
     18294      1598  TIP3      H2             -9.8744434226       25.2053715144       37.0502516773  TIP3      1498            0.0000000000
     18295      1599  TIP3      OH2            -5.2558774046       24.9116880904       38.7388328169  TIP3      1499            0.0000000000
     18296      1599  TIP3      H1             -4.8335759442       24.2498595938       39.3151907435  TIP3      1499            0.0000000000
     18297      1599  TIP3      H2             -5.1877717220       24.4595588106       37.8723918367  TIP3      1499            0.0000000000
     18298      1600  TIP3      OH2            -1.1312376933       24.1207616425       20.1341521569  TIP3      1500            0.0000000000
     18299      1600  TIP3      H1             -1.9077521662       23.8668394448       19.6168005658  TIP3      1500            0.0000000000
     18300      1600  TIP3      H2             -0.4233471746       23.9777658154       19.4830565290  TIP3      1500            0.0000000000
     18301      1601  TIP3      OH2             1.5826927578       23.5226721066       37.6210951069  TIP3      1501            0.0000000000
     18302      1601  TIP3      H1              1.2116235889       22.6937102809       38.0128823211  TIP3      1501            0.0000000000
     18303      1601  TIP3      H2              2.4989335959       23.5212405988       37.9592444145  TIP3      1501            0.0000000000
     18304      1602  TIP3      OH2            -9.7565612875       19.7299490194       37.8932525478  TIP3      1502            0.0000000000
     18305      1602  TIP3      H1            -10.4401888852       19.2150070741       38.3633753399  TIP3      1502            0.0000000000
     18306      1602  TIP3      H2            -10.2603942813       20.0615737561       37.1116323187  TIP3      1502            0.0000000000
     18307      1603  TIP3      OH2            -2.9471783316       19.6926898664       36.9070419982  TIP3      1503            0.0000000000
     18308      1603  TIP3      H1             -3.1783767572       20.3249082962       36.1874995561  TIP3      1503            0.0000000000
     18309      1603  TIP3      H2             -3.1105306912       18.8006538420       36.5104456943  TIP3      1503            0.0000000000
     18310      1604  TIP3      OH2             2.7551644161       19.7135619378       34.9980383938  TIP3      1504            0.0000000000
     18311      1604  TIP3      H1              3.5489108031       20.2954549584       34.9983215805  TIP3      1504            0.0000000000
     18312      1604  TIP3      H2              2.0697522339       20.3826670427       35.1406665374  TIP3      1504            0.0000000000
     18313      1605  TIP3      OH2            -8.1073887032       16.4991085423       37.2731726004  TIP3      1505            0.0000000000
     18314      1605  TIP3      H1             -8.2323812679       15.7483550706       37.8590630590  TIP3      1505            0.0000000000
     18315      1605  TIP3      H2             -7.9572779982       17.2150541127       37.9075732625  TIP3      1505            0.0000000000
     18316      1606  TIP3      OH2            -4.9419336461       15.9121659948       34.6728158058  TIP3      1506            0.0000000000
     18317      1606  TIP3      H1             -5.5328539579       16.6980370553       34.6896373170  TIP3      1506            0.0000000000
     18318      1606  TIP3      H2             -4.2218965669       16.3125384213       34.1609161538  TIP3      1506            0.0000000000
     18319      1607  TIP3      OH2             0.7564374246       18.6629891794       38.4684098933  TIP3      1507            0.0000000000
     18320      1607  TIP3      H1              1.2479832018       18.2674686464       37.7335065345  TIP3      1507            0.0000000000
     18321      1607  TIP3      H2              0.1072219076       17.9849278946       38.7077686996  TIP3      1507            0.0000000000
     18322      1608  TIP3      OH2            -3.6937282473       13.6470447459       35.5513386828  TIP3      1508            0.0000000000
     18323      1608  TIP3      H1             -3.6790849865       13.0150787464       34.8036742301  TIP3      1508            0.0000000000
     18324      1608  TIP3      H2             -3.9840537975       14.4704346557       35.0960970285  TIP3      1508            0.0000000000
     18325      1609  TIP3      OH2            -3.6250523299       11.7019309153       33.4360881774  TIP3      1509            0.0000000000
     18326      1609  TIP3      H1             -3.1907076776       12.0437937411       32.6182387430  TIP3      1509            0.0000000000
     18327      1609  TIP3      H2             -4.5754336587       11.7914943644       33.2134672505  TIP3      1509            0.0000000000
     18328      1610  TIP3      OH2            -2.6545667194       17.4723757103       33.6979606829  TIP3      1510            0.0000000000
     18329      1610  TIP3      H1             -1.7495272214       17.7562294948       33.5036874352  TIP3      1510            0.0000000000
     18330      1610  TIP3      H2             -3.1878041355       18.1621125906       33.2480299859  TIP3      1510            0.0000000000
     18331      1611  TIP3      OH2             1.5226512431       15.3589955382       38.8285690317  TIP3      1511            0.0000000000
     18332      1611  TIP3      H1              1.6150823710       14.5859959859       39.4206693940  TIP3      1511            0.0000000000
     18333      1611  TIP3      H2              2.4456623607       15.5114042017       38.5735491377  TIP3      1511            0.0000000000
     18334      1612  TIP3      OH2             3.7001271640       18.0311274220       36.9734768945  TIP3      1512            0.0000000000
     18335      1612  TIP3      H1              3.3121003986       18.6182327708       36.2872021100  TIP3      1512            0.0000000000
     18336      1612  TIP3      H2              4.6401793309       17.9643810254       36.6754321799  TIP3      1512            0.0000000000
     18337      1613  TIP3      OH2            -5.5558687370       14.2514062147       37.8166034048  TIP3      1513            0.0000000000
     18338      1613  TIP3      H1             -6.2970410627       13.8671572508       37.3002903947  TIP3      1513            0.0000000000
     18339      1613  TIP3      H2             -4.8152138634       14.1476517933       37.1975148768  TIP3      1513            0.0000000000
     18340      1614  TIP3      OH2            -2.9629052241        9.1413844598       33.7726696236  TIP3      1514            0.0000000000
     18341      1614  TIP3      H1             -3.1993610016       10.0725927021       33.5653497852  TIP3      1514            0.0000000000
     18342      1614  TIP3      H2             -3.7693660210        8.6790361111       33.4914932063  TIP3      1514            0.0000000000
     18343      1615  TIP3      OH2            -1.8328691787       13.3370853742       37.5327787859  TIP3      1515            0.0000000000
     18344      1615  TIP3      H1             -2.5441870466       13.0535159586       38.1415003306  TIP3      1515            0.0000000000
     18345      1615  TIP3      H2             -2.3290960497       13.3181508789       36.6849565213  TIP3      1515            0.0000000000
     18346      1616  TIP3      OH2             0.7466732932       12.8380322263       36.7071961590  TIP3      1516            0.0000000000
     18347      1616  TIP3      H1             -0.1443693599       12.9897347947       37.0778563565  TIP3      1516            0.0000000000
     18348      1616  TIP3      H2              1.0933319785       12.1970862558       37.3720993593  TIP3      1516            0.0000000000
     18349      1617  TIP3      OH2             1.8140907596       11.0547919083       38.4360238633  TIP3      1517            0.0000000000
     18350      1617  TIP3      H1              2.0036634872       10.0983283970       38.5678486615  TIP3      1517            0.0000000000
     18351      1617  TIP3      H2              1.9775714550       11.4586142428       39.3125201761  TIP3      1517            0.0000000000
     18352      1618  TIP3      OH2            -7.7933174778       12.7267435125       37.2961731726  TIP3      1518            0.0000000000
     18353      1618  TIP3      H1             -8.0185889585       11.8265606553       36.9877237104  TIP3      1518            0.0000000000
     18354      1618  TIP3      H2             -7.7849295987       12.5541622843       38.2713155642  TIP3      1518            0.0000000000
     18355      1619  TIP3      OH2            -3.3769792427        8.5986680405       36.7099210754  TIP3      1519            0.0000000000
     18356      1619  TIP3      H1             -2.5793134642        8.0858984528       36.9317993346  TIP3      1519            0.0000000000
     18357      1619  TIP3      H2             -3.3022003587        8.5559431936       35.7449787333  TIP3      1519            0.0000000000
     18358      1620  TIP3      OH2            -3.4987100014        9.8137408563       39.1065538818  TIP3      1520            0.0000000000
     18359      1620  TIP3      H1             -3.3999999333        9.5828866124       38.1594211717  TIP3      1520            0.0000000000
     18360      1620  TIP3      H2             -3.8968867564       10.7029713229       39.0703372302  TIP3      1520            0.0000000000
     18361      1621  TIP3      OH2           -10.5318042666       26.7370281469       26.6434351353  TIP3      1521            0.0000000000
     18362      1621  TIP3      H1            -11.2929972631       26.2661796673       26.2251108860  TIP3      1521            0.0000000000
     18363      1621  TIP3      H2            -10.2853650282       26.1468417533       27.3910369478  TIP3      1521            0.0000000000
     18364      1622  TIP3      OH2            -9.7439676966       24.9588807551       28.4508382758  TIP3      1522            0.0000000000
     18365      1622  TIP3      H1            -10.5383731779       24.6963467669       28.9343989827  TIP3      1522            0.0000000000
     18366      1622  TIP3      H2             -9.1447004065       25.2142715238       29.1937999168  TIP3      1522            0.0000000000
     18367      1623  TIP3      OH2             7.8344886740       26.2723939330       31.0968456811  TIP3      1523            0.0000000000
     18368      1623  TIP3      H1              7.9083206571       25.5538204451       31.7410272291  TIP3      1523            0.0000000000
     18369      1623  TIP3      H2              8.0585037929       27.0237480241       31.6927718965  TIP3      1523            0.0000000000
     18370      1624  TIP3      OH2             7.0151266747       25.3369164539       33.7858048815  TIP3      1524            0.0000000000
     18371      1624  TIP3      H1              6.6707666542       24.5805588456       33.2621777450  TIP3      1524            0.0000000000
     18372      1624  TIP3      H2              7.4053944301       24.8549882445       34.5401441771  TIP3      1524            0.0000000000
     18373      1625  TIP3      OH2             6.0824599438       21.4185538894       38.6764385647  TIP3      1525            0.0000000000
     18374      1625  TIP3      H1              5.2804675810       21.4337626020       39.2485263318  TIP3      1525            0.0000000000
     18375      1625  TIP3      H2              6.5478781070       22.2411325210       38.9527590533  TIP3      1525            0.0000000000
     18376      1626  TIP3      OH2             6.7435428058       19.3940334946       23.8970683488  TIP3      1526            0.0000000000
     18377      1626  TIP3      H1              6.9398218487       20.2187995853       24.3741134106  TIP3      1526            0.0000000000
     18378      1626  TIP3      H2              6.8261695775       18.7332393942       24.6196470566  TIP3      1526            0.0000000000
     18379      1627  TIP3      OH2             7.4192736070       17.5791312409       25.9121476120  TIP3      1527            0.0000000000
     18380      1627  TIP3      H1              6.6028599553       17.2398928515       26.3510149687  TIP3      1527            0.0000000000
     18381      1627  TIP3      H2              8.0184168385       17.6977542166       26.6851212119  TIP3      1527            0.0000000000
     18382      1628  TIP3      OH2             6.9484569154       20.4310938855       30.7732733826  TIP3      1528            0.0000000000
     18383      1628  TIP3      H1              7.6089752351       19.7782884425       30.4738460137  TIP3      1528            0.0000000000
     18384      1628  TIP3      H2              7.3230112611       21.2829015727       30.4813075957  TIP3      1528            0.0000000000
     18385      1629  TIP3      OH2             5.6489827794       23.0814419378       33.1966897808  TIP3      1529            0.0000000000
     18386      1629  TIP3      H1              5.0645017622       23.6843353035       33.6850947464  TIP3      1529            0.0000000000
     18387      1629  TIP3      H2              5.2009940619       23.0101708539       32.3146439410  TIP3      1529            0.0000000000
     18388      1630  TIP3      OH2             7.7521334081       17.3183989849       22.1226244655  TIP3      1530            0.0000000000
     18389      1630  TIP3      H1              7.1474473248       17.3230316018       21.3736702043  TIP3      1530            0.0000000000
     18390      1630  TIP3      H2              7.4358333239       18.0593262678       22.6800503075  TIP3      1530            0.0000000000
     18391      1631  TIP3      OH2             5.2252023590       16.3438900959       26.8395971069  TIP3      1531            0.0000000000
     18392      1631  TIP3      H1              5.1502978750       15.3869312953       26.7917428199  TIP3      1531            0.0000000000
     18393      1631  TIP3      H2              5.0073082141       16.4813957889       27.7903115224  TIP3      1531            0.0000000000
     18394      1632  TIP3      OH2            -9.9594916805       18.4365285579       30.6344488015  TIP3      1532            0.0000000000
     18395      1632  TIP3      H1             -9.9417055125       17.9592398304       29.7801063413  TIP3      1532            0.0000000000
     18396      1632  TIP3      H2             -9.0209814773       18.2967237005       30.9049821858  TIP3      1532            0.0000000000
     18397      1633  TIP3      OH2             6.2546968872       17.9095064462       36.1747244535  TIP3      1533            0.0000000000
     18398      1633  TIP3      H1              6.7488613058       17.1998976633       36.6570925895  TIP3      1533            0.0000000000
     18399      1633  TIP3      H2              6.9596125845       18.4874860978       35.8404260873  TIP3      1533            0.0000000000
     18400      1634  TIP3      OH2             7.3179954195       15.8280568216       37.3615465535  TIP3      1534            0.0000000000
     18401      1634  TIP3      H1              6.4495748841       15.5027916794       37.0403354394  TIP3      1534            0.0000000000
     18402      1634  TIP3      H2              7.9217752122       15.1289659156       37.0093636660  TIP3      1534            0.0000000000
     18403      1635  TIP3      OH2             4.3130128006       13.7394112106       24.6513714103  TIP3      1535            0.0000000000
     18404      1635  TIP3      H1              4.7003620880       12.8996704861       24.9879357980  TIP3      1535            0.0000000000
     18405      1635  TIP3      H2              5.1045192647       14.2956992311       24.6313837352  TIP3      1535            0.0000000000
     18406      1636  TIP3      OH2             5.9598062884       14.3225405046       30.3281633318  TIP3      1536            0.0000000000
     18407      1636  TIP3      H1              6.8931317018       14.5239501881       30.5564068883  TIP3      1536            0.0000000000
     18408      1636  TIP3      H2              5.6496741636       14.1816049506       31.2397013283  TIP3      1536            0.0000000000
     18409      1637  TIP3      OH2             5.8003489659       15.0266509582       33.1196867006  TIP3      1537            0.0000000000
     18410      1637  TIP3      H1              4.9180205118       15.2971662447       33.4490551652  TIP3      1537            0.0000000000
     18411      1637  TIP3      H2              6.2019349557       15.8986041521       32.9136502924  TIP3      1537            0.0000000000
     18412      1638  TIP3      OH2           -10.1679317329       13.5451355257       36.4353022658  TIP3      1538            0.0000000000
     18413      1638  TIP3      H1             -9.2852250879       13.4233162784       36.8611779448  TIP3      1538            0.0000000000
     18414      1638  TIP3      H2            -10.6004602974       12.6790414712       36.6237000088  TIP3      1538            0.0000000000
     18415      1639  TIP3      OH2             7.7435272176        9.0660146553       38.3260448168  TIP3      1539            0.0000000000
     18416      1639  TIP3      H1              8.1324367133        8.5123441426       37.6204283319  TIP3      1539            0.0000000000
     18417      1639  TIP3      H2              7.6925715288        9.9181216001       37.8350884596  TIP3      1539            0.0000000000
     18418      1640  TIP3      OH2             5.6128393495       11.3053364527       25.1444366345  TIP3      1540            0.0000000000
     18419      1640  TIP3      H1              5.6369419075       11.1257252117       26.1090055346  TIP3      1540            0.0000000000
     18420      1640  TIP3      H2              4.8597661039       10.7309477682       24.8893567862  TIP3      1540            0.0000000000
     18421      1641  TIP3      OH2            -9.0411148199       11.6679245568       30.2150677733  TIP3      1541            0.0000000000
     18422      1641  TIP3      H1             -8.5343269436       10.8225527939       30.1802055634  TIP3      1541            0.0000000000
     18423      1641  TIP3      H2             -8.3433516198       12.3416694230       30.2281408361  TIP3      1541            0.0000000000
     18424      1642  TIP3      OH2           -10.4403447861       14.7987027160       30.8545086999  TIP3      1542            0.0000000000
     18425      1642  TIP3      H1             -9.8305334900       14.5655518549       30.1326919313  TIP3      1542            0.0000000000
     18426      1642  TIP3      H2            -10.0401173460       15.6197610074       31.1598567117  TIP3      1542            0.0000000000
     18427      1643  TIP3      OH2             7.2547566568       11.1955151656       36.8222949705  TIP3      1543            0.0000000000
     18428      1643  TIP3      H1              6.3836407503       11.6491455207       36.8770702037  TIP3      1543            0.0000000000
     18429      1643  TIP3      H2              7.0045475675       10.5863216515       36.1031304115  TIP3      1543            0.0000000000
     18430      1644  TIP3      OH2             7.5813472220       10.5046181515       21.8458808308  TIP3      1544            0.0000000000
     18431      1644  TIP3      H1              7.9892385129       10.1963874602       21.0198981020  TIP3      1544            0.0000000000
     18432      1644  TIP3      H2              7.3796022498       11.3976268604       21.5400278807  TIP3      1544            0.0000000000
     18433      1645  TIP3      OH2           -10.3400290553       11.2748498634       24.9327631886  TIP3      1545            0.0000000000
     18434      1645  TIP3      H1            -11.2751337564       11.4837976077       24.8746432506  TIP3      1545            0.0000000000
     18435      1645  TIP3      H2            -10.0952151078       11.1956921107       23.9922321887  TIP3      1545            0.0000000000
     18436      1646  TIP3      OH2             4.1497265364       26.0829381314       26.6796393287  TIP3      1546            0.0000000000
     18437      1646  TIP3      H1              5.0100471735       25.9637593115       26.2296520433  TIP3      1546            0.0000000000
     18438      1646  TIP3      H2              4.3961340624       26.5902642706       27.4844511511  TIP3      1546            0.0000000000
     18439      1647  TIP3      OH2           -10.5278159464        9.6227552654       32.9486019220  TIP3      1547            0.0000000000
     18440      1647  TIP3      H1            -11.2161835966        9.2322560067       33.5156453228  TIP3      1547            0.0000000000
     18441      1647  TIP3      H2            -10.9914912306       10.3029836983       32.4345195880  TIP3      1547            0.0000000000
     18442      1648  TIP3      OH2            -7.9013611797       22.8086117342       37.5076989980  TIP3      1548            0.0000000000
     18443      1648  TIP3      H1             -8.7715079896       22.9322223390       37.0916838388  TIP3      1548            0.0000000000
     18444      1648  TIP3      H2             -8.0684902228       22.8913831574       38.4627009478  TIP3      1548            0.0000000000
     18445      1649  TIP3      OH2            -5.4055504966       24.2044896778       33.7302756335  TIP3      1549            0.0000000000
     18446      1649  TIP3      H1             -5.5904415479       25.1247579283       33.4375747963  TIP3      1549            0.0000000000
     18447      1649  TIP3      H2             -4.4234128544       24.2274502959       33.7435244440  TIP3      1549            0.0000000000
     18448      1650  TIP3      OH2            -1.2406455744       25.3717121570       36.4029475551  TIP3      1550            0.0000000000
     18449      1650  TIP3      H1             -1.1064435953       25.0330536005       37.3165452309  TIP3      1550            0.0000000000
     18450      1650  TIP3      H2             -0.4005986106       25.8708586435       36.2911952996  TIP3      1550            0.0000000000
     18451      1651  TIP3      OH2             1.0730145886       26.8652252996       36.0447094178  TIP3      1551            0.0000000000
     18452      1651  TIP3      H1              1.8463727251       26.4702465738       35.6193557978  TIP3      1551            0.0000000000
     18453      1651  TIP3      H2              1.4377768921       27.2034154099       36.8958204817  TIP3      1551            0.0000000000
     18454      1652  TIP3      OH2             6.4201073930        8.9745264608       35.1972227834  TIP3      1552            0.0000000000
     18455      1652  TIP3      H1              5.8279580987        9.4118035879       34.5679357174  TIP3      1552            0.0000000000
     18456      1652  TIP3      H2              6.4251180694        8.0519903172       34.8695274259  TIP3      1552            0.0000000000
     18457      1653  TIP3      OH2            -8.0901549447       27.2067067529       33.7402595686  TIP3      1553            0.0000000000
     18458      1653  TIP3      H1             -8.9161222458       27.5819976757       33.3603266075  TIP3      1553            0.0000000000
     18459      1653  TIP3      H2             -8.0689271490       27.6449031886       34.6120998534  TIP3      1553            0.0000000000
     18460      1654  TIP3      OH2            -5.7888669944       26.6918915886       32.5505575628  TIP3      1554            0.0000000000
     18461      1654  TIP3      H1             -6.7398523489       26.9364308587       32.7227540862  TIP3      1554            0.0000000000
     18462      1654  TIP3      H2             -5.6129900036       27.2243811665       31.7660882140  TIP3      1554            0.0000000000
     18463      1655  TIP3      OH2            -0.6892539762       26.5917924703       31.8868403694  TIP3      1555            0.0000000000
     18464      1655  TIP3      H1             -1.5106900838       26.9932872790       31.5586623409  TIP3      1555            0.0000000000
     18465      1655  TIP3      H2             -0.4420340343       27.1726497323       32.6398847093  TIP3      1555            0.0000000000
     18466      1656  TIP3      OH2             1.1892376626       25.0511061576       33.1109810939  TIP3      1556            0.0000000000
     18467      1656  TIP3      H1              0.5656024107       25.5079159394       32.5132597927  TIP3      1556            0.0000000000
     18468      1656  TIP3      H2              1.9482579385       25.6711559924       32.9916243600  TIP3      1556            0.0000000000
     18469      1657  TIP3      OH2             3.2275175970       26.7343903341       32.8293274110  TIP3      1557            0.0000000000
     18470      1657  TIP3      H1              3.6002331668       27.6164321081       33.0191011881  TIP3      1557            0.0000000000
     18471      1657  TIP3      H2              3.7804778877       26.4805317398       32.0493959583  TIP3      1557            0.0000000000
     18472      1658  TIP3      OH2            -8.1079032461       25.5434463376       30.4787723910  TIP3      1558            0.0000000000
     18473      1658  TIP3      H1             -8.3020588268       24.8866631566       31.1869467459  TIP3      1558            0.0000000000
     18474      1658  TIP3      H2             -7.2188917549       25.2486248109       30.1762076913  TIP3      1558            0.0000000000
     18475      1659  TIP3      OH2            -5.8662182399       24.6182632998       29.2380210120  TIP3      1559            0.0000000000
     18476      1659  TIP3      H1             -6.0282505676       23.6730437765       29.4319266213  TIP3      1559            0.0000000000
     18477      1659  TIP3      H2             -5.0428686601       24.7554855924       29.7563767105  TIP3      1559            0.0000000000
     18478      1660  TIP3      OH2            -3.7216063679       24.6938598849       30.7684307275  TIP3      1560            0.0000000000
     18479      1660  TIP3      H1             -3.3458600112       23.8506734858       30.4575030628  TIP3      1560            0.0000000000
     18480      1660  TIP3      H2             -3.6784852978       24.5881039402       31.7385014970  TIP3      1560            0.0000000000
     18481      1661  TIP3      OH2            -0.6226044051       10.3906728706       28.4300560551  TIP3      1561            0.0000000000
     18482      1661  TIP3      H1             -1.4138468750       10.1164056161       28.9227929973  TIP3      1561            0.0000000000
     18483      1661  TIP3      H2             -0.4111997410        9.5574506119       27.9769146699  TIP3      1561            0.0000000000
     18484      1662  TIP3      OH2             5.0513740414        8.5043324524       29.1476204616  TIP3      1562            0.0000000000
     18485      1662  TIP3      H1              5.5228615972        9.3235523736       28.8715995687  TIP3      1562            0.0000000000
     18486      1662  TIP3      H2              4.1289957531        8.7879550190       28.9517995657  TIP3      1562            0.0000000000
     18487      1663  TIP3      OH2             6.0563633504       10.4937437948       27.6457434372  TIP3      1563            0.0000000000
     18488      1663  TIP3      H1              6.5433734601        9.7201156962       27.2808326391  TIP3      1563            0.0000000000
     18489      1663  TIP3      H2              6.8069057171       11.1163820910       27.8190925119  TIP3      1563            0.0000000000
     18490      1664  TIP3      OH2            -8.1401179193        9.0639240163       27.2702114717  TIP3      1564            0.0000000000
     18491      1664  TIP3      H1             -8.9727290874        8.8467698575       26.8111978210  TIP3      1564            0.0000000000
     18492      1664  TIP3      H2             -7.6109111681        8.2465904925       27.1226535817  TIP3      1564            0.0000000000
     18493      1665  TIP3      OH2            -9.0375165374        8.9630113054       22.5159232136  TIP3      1565            0.0000000000
     18494      1665  TIP3      H1             -8.6057108914        9.2333761292       21.6944087120  TIP3      1565            0.0000000000
     18495      1665  TIP3      H2             -9.8551882422        9.4815628561       22.5067745594  TIP3      1565            0.0000000000
     18496      1666  TIP3      OH2            -3.7797773304        8.8794946539       26.7512332481  TIP3      1566            0.0000000000
     18497      1666  TIP3      H1             -2.9761427382        8.8029534867       26.2204983172  TIP3      1566            0.0000000000
     18498      1666  TIP3      H2             -3.4222903513        8.8858237011       27.6421403701  TIP3      1566            0.0000000000
     18499      1667  TIP3      OH2             2.5311212134        9.2651475629       28.4089536820  TIP3      1567            0.0000000000
     18500      1667  TIP3      H1              2.5418099930        9.2508513694       27.4468402982  TIP3      1567            0.0000000000
     18501      1667  TIP3      H2              1.7867930427        8.6478878783       28.5996368680  TIP3      1567            0.0000000000
     18502      1668  TIP3      OH2             3.5175778690        9.5208800332       24.5241124619  TIP3      1568            0.0000000000
     18503      1668  TIP3      H1              2.7203220045       10.0517414016       24.3903327888  TIP3      1568            0.0000000000
     18504      1668  TIP3      H2              3.0962286726        8.6359494335       24.6473235803  TIP3      1568            0.0000000000
     18505      1669  TIP3      OH2            -9.7073396256       24.7356893052       23.2881418195  TIP3      1569            0.0000000000
     18506      1669  TIP3      H1            -10.1244413083       25.0431052047       22.4374131541  TIP3      1569            0.0000000000
     18507      1669  TIP3      H2             -9.3304713877       25.5863870394       23.5383201486  TIP3      1569            0.0000000000
     18508      1670  TIP3      OH2            -2.0489997393       11.4732078507       23.4209751140  TIP3      1570            0.0000000000
     18509      1670  TIP3      H1             -1.9505887329       11.0064758406       24.2665311924  TIP3      1570            0.0000000000
     18510      1670  TIP3      H2             -1.9692335393       12.3887216633       23.7342946156  TIP3      1570            0.0000000000
     18511      1671  TIP3      OH2             6.2263300475       25.4015570341       25.1454929522  TIP3      1571            0.0000000000
     18512      1671  TIP3      H1              5.9538794491       24.5676472657       24.7134489928  TIP3      1571            0.0000000000
     18513      1671  TIP3      H2              6.0142558477       26.0481708604       24.4346568907  TIP3      1571            0.0000000000
     18514      1672  TIP3      OH2            -8.3067189740        9.9028841533       36.3931835223  TIP3      1572            0.0000000000
     18515      1672  TIP3      H1             -8.6743074270        9.0107077145       36.4919085997  TIP3      1572            0.0000000000
     18516      1672  TIP3      H2             -7.5179678185        9.8817272905       36.9755734433  TIP3      1572            0.0000000000
     18517      1673  TIP3      OH2            -6.2381653736        9.5157570572       38.3780704540  TIP3      1573            0.0000000000
     18518      1673  TIP3      H1             -5.2948314929        9.2826043705       38.3229875790  TIP3      1573            0.0000000000
     18519      1673  TIP3      H2             -6.6093230656        8.6808742009       38.7427174032  TIP3      1573            0.0000000000
     18520      1674  TIP3      OH2             2.3049216475        8.4059612310       38.5811601484  TIP3      1574            0.0000000000
     18521      1674  TIP3      H1              2.4123435812        7.9743325660       39.4575082327  TIP3      1574            0.0000000000
     18522      1674  TIP3      H2              3.2344259818        8.3878029388       38.2779200379  TIP3      1574            0.0000000000
     18523      1675  TIP3      OH2             5.7288204096       24.6310171558       36.7770168318  TIP3      1575            0.0000000000
     18524      1675  TIP3      H1              5.1235947678       24.6711610217       35.9985191146  TIP3      1575            0.0000000000
     18525      1675  TIP3      H2              5.6911557838       25.5512695459       37.0892633791  TIP3      1575            0.0000000000
     18526      1676  TIP3      OH2            20.0665411829       18.5679754243       26.8841889654  TIP3      1576            0.0000000000
     18527      1676  TIP3      H1             20.3493065175       19.4502206502       27.1852882186  TIP3      1576            0.0000000000
     18528      1676  TIP3      H2             19.3691547669       18.8058053323       26.2566146379  TIP3      1576            0.0000000000
     18529      1677  TIP3      OH2            18.9053584065       17.0666163201       30.0364141389  TIP3      1577            0.0000000000
     18530      1677  TIP3      H1             18.9807805308       16.6446532860       30.9145686061  TIP3      1577            0.0000000000
     18531      1677  TIP3      H2             18.1359555626       16.6042411092       29.6536489343  TIP3      1577            0.0000000000
     18532      1678  TIP3      OH2            11.1068490933       17.3321866077       31.4975130013  TIP3      1578            0.0000000000
     18533      1678  TIP3      H1             10.8970420451       16.5894061633       32.0924680903  TIP3      1578            0.0000000000
     18534      1678  TIP3      H2             11.8626113622       17.7038682284       31.9846377185  TIP3      1578            0.0000000000
     18535      1679  TIP3      OH2            21.9723123713       20.2339011885       28.7492656127  TIP3      1579            0.0000000000
     18536      1679  TIP3      H1             22.0170772747       19.5791450817       29.4779552280  TIP3      1579            0.0000000000
     18537      1679  TIP3      H2             22.0610718967       21.0603234347       29.2463262039  TIP3      1579            0.0000000000
     18538      1680  TIP3      OH2            12.2379861527       21.8637980589       29.9301575133  TIP3      1580            0.0000000000
     18539      1680  TIP3      H1             11.9356979467       20.9527427090       29.7310688003  TIP3      1580            0.0000000000
     18540      1680  TIP3      H2             13.1913679171       21.7227369125       29.7840830192  TIP3      1580            0.0000000000
     18541      1681  TIP3      OH2             9.2865915004       15.2029253716       25.3103699008  TIP3      1581            0.0000000000
     18542      1681  TIP3      H1              8.7807576730       15.9365968094       25.6926688610  TIP3      1581            0.0000000000
     18543      1681  TIP3      H2              8.6399304540       14.8694723847       24.6636607642  TIP3      1581            0.0000000000
     18544      1682  TIP3      OH2             9.3069480887       17.8590913798       27.9195382144  TIP3      1582            0.0000000000
     18545      1682  TIP3      H1              9.6772326483       16.9718639808       28.1452276995  TIP3      1582            0.0000000000
     18546      1682  TIP3      H2             10.0297165277       18.4398292073       28.2069859047  TIP3      1582            0.0000000000
     18547      1683  TIP3      OH2            19.6075774778       25.6510914761       28.5510996249  TIP3      1583            0.0000000000
     18548      1683  TIP3      H1             20.4060903082       25.2095735510       28.1738382189  TIP3      1583            0.0000000000
     18549      1683  TIP3      H2             19.5272803565       25.1208332464       29.3554219821  TIP3      1583            0.0000000000
     18550      1684  TIP3      OH2            16.9353421878       20.1630554769       31.1045840232  TIP3      1584            0.0000000000
     18551      1684  TIP3      H1             17.2959367034       19.7931143882       30.2820363973  TIP3      1584            0.0000000000
     18552      1684  TIP3      H2             17.7667786029       20.2861018992       31.6275237101  TIP3      1584            0.0000000000
     18553      1685  TIP3      OH2            25.6227213661       11.9129444773       31.0387889007  TIP3      1585            0.0000000000
     18554      1685  TIP3      H1             25.7468991299       12.4250716689       31.8652097799  TIP3      1585            0.0000000000
     18555      1685  TIP3      H2             26.4550334929       12.0948616064       30.5671000420  TIP3      1585            0.0000000000
     18556      1686  TIP3      OH2            21.0095925858       14.6655757977       31.3404455771  TIP3      1586            0.0000000000
     18557      1686  TIP3      H1             21.0230209101       13.7180606263       31.5725811075  TIP3      1586            0.0000000000
     18558      1686  TIP3      H2             21.0867650459       14.6096442503       30.3679867985  TIP3      1586            0.0000000000
     18559      1687  TIP3      OH2            13.4652909191       12.3965531970       28.1800868084  TIP3      1587            0.0000000000
     18560      1687  TIP3      H1             13.7316289433       13.1641109271       27.6348071630  TIP3      1587            0.0000000000
     18561      1687  TIP3      H2             13.0976578489       11.8104701093       27.4942412415  TIP3      1587            0.0000000000
     18562      1688  TIP3      OH2            20.7574662471       12.4487632180       26.5530300072  TIP3      1588            0.0000000000
     18563      1688  TIP3      H1             21.3812940091       12.2535877603       27.2814425606  TIP3      1588            0.0000000000
     18564      1688  TIP3      H2             21.1481419895       13.2691744019       26.2138533065  TIP3      1588            0.0000000000
     18565      1689  TIP3      OH2            10.1929402426       15.5637303760       29.0712185619  TIP3      1589            0.0000000000
     18566      1689  TIP3      H1             10.8197350478       15.2649130174       29.7519804564  TIP3      1589            0.0000000000
     18567      1689  TIP3      H2             10.4473847771       14.9969434451       28.3224856933  TIP3      1589            0.0000000000
     18568      1690  TIP3      OH2            14.6699327391       16.3800896521       28.5287197279  TIP3      1590            0.0000000000
     18569      1690  TIP3      H1             15.6044252665       16.0910242368       28.5544333156  TIP3      1590            0.0000000000
     18570      1690  TIP3      H2             14.3131972852       15.7833112951       27.8381921479  TIP3      1590            0.0000000000
     18571      1691  TIP3      OH2            26.0249383456       13.0100964837       33.5517536325  TIP3      1591            0.0000000000
     18572      1691  TIP3      H1             25.5017946169       13.8423928218       33.5570815154  TIP3      1591            0.0000000000
     18573      1691  TIP3      H2             26.8207504211       13.3172793923       34.0078710040  TIP3      1591            0.0000000000
     18574      1692  TIP3      OH2            12.7614725558       11.6170643962       32.2819114818  TIP3      1592            0.0000000000
     18575      1692  TIP3      H1             12.3592504894       12.1441067337       31.5550805219  TIP3      1592            0.0000000000
     18576      1692  TIP3      H2             12.1581729837       11.8330853519       33.0217189108  TIP3      1592            0.0000000000
     18577      1693  TIP3      OH2            19.5332514456       21.3045821956       25.8149068304  TIP3      1593            0.0000000000
     18578      1693  TIP3      H1             19.3585001653       21.4155413925       24.8682599254  TIP3      1593            0.0000000000
     18579      1693  TIP3      H2             19.2871429649       22.1761423433       26.1485666842  TIP3      1593            0.0000000000
     18580      1694  TIP3      OH2            14.6821806384       19.1585921758       32.3065660023  TIP3      1594            0.0000000000
     18581      1694  TIP3      H1             14.0378692602       19.8796944303       32.4697448098  TIP3      1594            0.0000000000
     18582      1694  TIP3      H2             15.4471467009       19.6421595741       31.9137232856  TIP3      1594            0.0000000000
     18583      1695  TIP3      OH2            23.1834892683       12.5234704800       28.7394718103  TIP3      1595            0.0000000000
     18584      1695  TIP3      H1             23.3822957714       11.6607789552       29.1183794957  TIP3      1595            0.0000000000
     18585      1695  TIP3      H2             23.5992130093       13.1424668365       29.3711746384  TIP3      1595            0.0000000000
     18586      1696  TIP3      OH2            12.0187882693       13.4173251552       30.3314735224  TIP3      1596            0.0000000000
     18587      1696  TIP3      H1             12.6837668280       14.0018871002       30.7707842324  TIP3      1596            0.0000000000
     18588      1696  TIP3      H2             12.5331976113       13.0990431010       29.5510466854  TIP3      1596            0.0000000000
     18589      1697  TIP3      OH2            13.4367013704       21.4864280772       33.0833850914  TIP3      1597            0.0000000000
     18590      1697  TIP3      H1             13.3755461324       22.4074885262       32.8003985651  TIP3      1597            0.0000000000
     18591      1697  TIP3      H2             12.5970063095       21.4052836170       33.6030405049  TIP3      1597            0.0000000000
     18592      1698  TIP3      OH2            23.0402085925       22.0797991312       31.2726319686  TIP3      1598            0.0000000000
     18593      1698  TIP3      H1             22.1832757436       22.5556744843       31.3526971532  TIP3      1598            0.0000000000
     18594      1698  TIP3      H2             23.5066970382       22.6099721284       30.6149598919  TIP3      1598            0.0000000000
     18595      1699  TIP3      OH2            22.9502575197       10.9938905472       32.0317797177  TIP3      1599            0.0000000000
     18596      1699  TIP3      H1             22.1295142197       11.2836514701       31.5727700868  TIP3      1599            0.0000000000
     18597      1699  TIP3      H2             23.6383608054       11.4399787498       31.5091791781  TIP3      1599            0.0000000000
     18598      1700  TIP3      OH2            15.7254037629        8.7301601725       29.7966967440  TIP3      1600            0.0000000000
     18599      1700  TIP3      H1             15.3139085187        7.9031765122       30.1069695483  TIP3      1600            0.0000000000
     18600      1700  TIP3      H2             14.9761621482        9.3429775001       30.0201609753  TIP3      1600            0.0000000000
     18601      1701  TIP3      OH2            21.6540251101       24.3249868226       27.4526713322  TIP3      1601            0.0000000000
     18602      1701  TIP3      H1             21.7483583972       23.4697087941       26.9761643894  TIP3      1601            0.0000000000
     18603      1701  TIP3      H2             22.5762234871       24.6914027371       27.3840394915  TIP3      1601            0.0000000000
     18604      1702  TIP3      OH2            22.7959534147       22.1868059479       26.1982249497  TIP3      1602            0.0000000000
     18605      1702  TIP3      H1             22.6439540315       21.6367197374       25.4057794025  TIP3      1602            0.0000000000
     18606      1702  TIP3      H2             22.6922803296       21.5036374829       26.8823529505  TIP3      1602            0.0000000000
     18607      1703  TIP3      OH2            24.0447933352       20.8914680577       34.7326211317  TIP3      1603            0.0000000000
     18608      1703  TIP3      H1             24.3377322483       20.2648433885       34.0313735015  TIP3      1603            0.0000000000
     18609      1703  TIP3      H2             24.1764375283       21.7522338404       34.2808058839  TIP3      1603            0.0000000000
     18610      1704  TIP3      OH2            18.5763309094       17.4806841340       24.0798603690  TIP3      1604            0.0000000000
     18611      1704  TIP3      H1             18.0604315536       18.1902628760       23.6410987122  TIP3      1604            0.0000000000
     18612      1704  TIP3      H2             19.4150056199       17.4910547182       23.5798761321  TIP3      1604            0.0000000000
     18613      1705  TIP3      OH2            26.0539462214       17.1197195993       32.5606969228  TIP3      1605            0.0000000000
     18614      1705  TIP3      H1             25.5503702728       17.9626719520       32.6351820474  TIP3      1605            0.0000000000
     18615      1705  TIP3      H2             26.7583992201       17.3480846486       31.9029337035  TIP3      1605            0.0000000000
     18616      1706  TIP3      OH2            22.2874228920       17.6756761819       25.4937200480  TIP3      1606            0.0000000000
     18617      1706  TIP3      H1             21.5079043862       17.9062546625       26.0461357321  TIP3      1606            0.0000000000
     18618      1706  TIP3      H2             22.9398426433       17.4028327228       26.1708854104  TIP3      1606            0.0000000000
     18619      1707  TIP3      OH2            22.1175881480       15.9340097448       34.7795660311  TIP3      1607            0.0000000000
     18620      1707  TIP3      H1             22.2990607504       16.8314119784       35.1182797492  TIP3      1607            0.0000000000
     18621      1707  TIP3      H2             21.4495012802       16.1192430770       34.0955832477  TIP3      1607            0.0000000000
     18622      1708  TIP3      OH2            13.8125412577       18.4360458963       27.1470041811  TIP3      1608            0.0000000000
     18623      1708  TIP3      H1             13.5708693486       17.9798112768       26.3150415253  TIP3      1608            0.0000000000
     18624      1708  TIP3      H2             14.3522678375       17.7511935024       27.5843661685  TIP3      1608            0.0000000000
     18625      1709  TIP3      OH2            15.1032708044       21.6721810810       29.8178425717  TIP3      1609            0.0000000000
     18626      1709  TIP3      H1             15.5293432858       21.6298575403       28.9487678422  TIP3      1609            0.0000000000
     18627      1709  TIP3      H2             15.6905108547       21.0988193334       30.3569867780  TIP3      1609            0.0000000000
     18628      1710  TIP3      OH2            13.9669738554       16.9872776301       31.0478678035  TIP3      1610            0.0000000000
     18629      1710  TIP3      H1             14.2598785018       17.0500155967       30.1117768965  TIP3      1610            0.0000000000
     18630      1710  TIP3      H2             14.4392653826       17.7468167622       31.4642417257  TIP3      1610            0.0000000000
     18631      1711  TIP3      OH2            20.4088961929       22.8264963016       31.5916297438  TIP3      1611            0.0000000000
     18632      1711  TIP3      H1             20.0803250830       23.4767185882       32.2373794192  TIP3      1611            0.0000000000
     18633      1711  TIP3      H2             20.1630760346       21.9980711509       32.0529193402  TIP3      1611            0.0000000000
     18634      1712  TIP3      OH2            15.3367965647       21.6429502248       35.0642311701  TIP3      1612            0.0000000000
     18635      1712  TIP3      H1             14.6926203589       22.1775498584       35.5668402614  TIP3      1612            0.0000000000
     18636      1712  TIP3      H2             14.8243570751       21.4900964566       34.2418775873  TIP3      1612            0.0000000000
     18637      1713  TIP3      OH2            21.0979556914       17.3474602171       23.1313011358  TIP3      1613            0.0000000000
     18638      1713  TIP3      H1             21.5181640437       17.3127260875       24.0276990331  TIP3      1613            0.0000000000
     18639      1713  TIP3      H2             21.5628407556       18.0969648588       22.7269752418  TIP3      1613            0.0000000000
     18640      1714  TIP3      OH2            12.1084445760       17.8176622700       34.3583566354  TIP3      1614            0.0000000000
     18641      1714  TIP3      H1             12.3091870852       18.7382562723       34.5639414633  TIP3      1614            0.0000000000
     18642      1714  TIP3      H2             11.4684368894       17.5959412219       35.0676103795  TIP3      1614            0.0000000000
     18643      1715  TIP3      OH2            18.8807950184       24.5928590767       25.9641160941  TIP3      1615            0.0000000000
     18644      1715  TIP3      H1             18.8997902935       24.8422923146       26.9014728122  TIP3      1615            0.0000000000
     18645      1715  TIP3      H2             18.5237041267       25.4081901836       25.5328019226  TIP3      1615            0.0000000000
     18646      1716  TIP3      OH2            13.4367665774       23.2533218386       36.5074411640  TIP3      1616            0.0000000000
     18647      1716  TIP3      H1             13.2424979892       23.6418646313       35.6258061499  TIP3      1616            0.0000000000
     18648      1716  TIP3      H2             12.5225486775       23.0236690868       36.7932073317  TIP3      1616            0.0000000000
     18649      1717  TIP3      OH2            12.6357742230       17.3271944884       24.8586017924  TIP3      1617            0.0000000000
     18650      1717  TIP3      H1             12.1795323026       18.1653788272       24.6945382789  TIP3      1617            0.0000000000
     18651      1717  TIP3      H2             11.9071588456       16.7019802480       24.7554121522  TIP3      1617            0.0000000000
     18652      1718  TIP3      OH2             8.9513827419       20.1200440176       33.4883661385  TIP3      1618            0.0000000000
     18653      1718  TIP3      H1              8.5431934511       20.0235864423       32.6091795361  TIP3      1618            0.0000000000
     18654      1718  TIP3      H2              9.2902213801       19.2054951999       33.6199573812  TIP3      1618            0.0000000000
     18655      1719  TIP3      OH2             8.8107214800       22.7436536453       30.3811518653  TIP3      1619            0.0000000000
     18656      1719  TIP3      H1              9.6357982293       22.2654241794       30.2106235288  TIP3      1619            0.0000000000
     18657      1719  TIP3      H2              9.0951085685       23.4252399608       31.0102132153  TIP3      1619            0.0000000000
     18658      1720  TIP3      OH2            26.7979191635       23.6028475219       35.9540393309  TIP3      1620            0.0000000000
     18659      1720  TIP3      H1             27.0305594186       22.7445728539       36.3442902830  TIP3      1620            0.0000000000
     18660      1720  TIP3      H2             25.9862222015       23.8334787850       36.4769041594  TIP3      1620            0.0000000000
     18661      1721  TIP3      OH2            17.8814238402       22.7868384644       35.0169659206  TIP3      1621            0.0000000000
     18662      1721  TIP3      H1             17.9163761973       23.6285881387       35.5240599003  TIP3      1621            0.0000000000
     18663      1721  TIP3      H2             16.9628816071       22.4691895658       35.1654467022  TIP3      1621            0.0000000000
     18664      1722  TIP3      OH2            18.2549096525       26.8989190548       24.6048837018  TIP3      1622            0.0000000000
     18665      1722  TIP3      H1             18.5259670649       27.3506363343       23.7866283770  TIP3      1622            0.0000000000
     18666      1722  TIP3      H2             17.8862397385       27.6425288179       25.1317931455  TIP3      1622            0.0000000000
     18667      1723  TIP3      OH2            11.9843298479       25.4637920772       26.8482764760  TIP3      1623            0.0000000000
     18668      1723  TIP3      H1             12.2620331066       25.1011234956       27.7223406230  TIP3      1623            0.0000000000
     18669      1723  TIP3      H2             11.1003270689       25.0384098935       26.7538026071  TIP3      1623            0.0000000000
     18670      1724  TIP3      OH2            20.7228990402       25.9818314350       22.0327712478  TIP3      1624            0.0000000000
     18671      1724  TIP3      H1             20.2858836029       26.0888097991       21.1628228720  TIP3      1624            0.0000000000
     18672      1724  TIP3      H2             21.2802142467       25.2071114320       21.9178316055  TIP3      1624            0.0000000000
     18673      1725  TIP3      OH2            21.1042902478       26.1942031896       25.4532762733  TIP3      1625            0.0000000000
     18674      1725  TIP3      H1             20.2422453839       25.8344174652       25.1738789269  TIP3      1625            0.0000000000
     18675      1725  TIP3      H2             21.4179817180       25.4989120923       26.0689273151  TIP3      1625            0.0000000000
     18676      1726  TIP3      OH2            23.8571712385       14.7374887791       36.5882195325  TIP3      1626            0.0000000000
     18677      1726  TIP3      H1             23.1767985178       15.0364716872       35.9578604672  TIP3      1626            0.0000000000
     18678      1726  TIP3      H2             24.1619930081       13.8947220088       36.1772400467  TIP3      1626            0.0000000000
     18679      1727  TIP3      OH2            11.2393178581       21.2230971924       34.5832971172  TIP3      1627            0.0000000000
     18680      1727  TIP3      H1             11.3208071610       20.7224067117       35.4263002562  TIP3      1627            0.0000000000
     18681      1727  TIP3      H2             10.3546026787       20.9539951724       34.2557828580  TIP3      1627            0.0000000000
     18682      1728  TIP3      OH2            13.6667474814       10.0417555419       30.4692026723  TIP3      1628            0.0000000000
     18683      1728  TIP3      H1             12.7821232791        9.8132160390       30.1252257383  TIP3      1628            0.0000000000
     18684      1728  TIP3      H2             13.4666830689       10.5704629150       31.2709147798  TIP3      1628            0.0000000000
     18685      1729  TIP3      OH2            18.7821739939        9.3907815097       33.5410879564  TIP3      1629            0.0000000000
     18686      1729  TIP3      H1             19.0460812674        8.9401408492       34.3761598391  TIP3      1629            0.0000000000
     18687      1729  TIP3      H2             17.8131121747        9.5186641474       33.6474765661  TIP3      1629            0.0000000000
     18688      1730  TIP3      OH2            21.3596887987       13.2965885013       34.9369447345  TIP3      1630            0.0000000000
     18689      1730  TIP3      H1             20.7402708482       13.0421676288       35.6682257197  TIP3      1630            0.0000000000
     18690      1730  TIP3      H2             21.5437748131       14.2325344181       35.1325467305  TIP3      1630            0.0000000000
     18691      1731  TIP3      OH2            13.8230650295       14.5471171941       32.0013833128  TIP3      1631            0.0000000000
     18692      1731  TIP3      H1             13.1270564669       14.7847403898       32.6539660338  TIP3      1631            0.0000000000
     18693      1731  TIP3      H2             13.9511711855       15.4332431598       31.5831199326  TIP3      1631            0.0000000000
     18694      1732  TIP3      OH2            13.9609707500       14.5071419513       26.4949027110  TIP3      1632            0.0000000000
     18695      1732  TIP3      H1             12.9869585590       14.3467562256       26.5041898660  TIP3      1632            0.0000000000
     18696      1732  TIP3      H2             14.2340676706       14.0764208204       25.6595548027  TIP3      1632            0.0000000000
     18697      1733  TIP3      OH2            19.5708728720       15.3568825870       25.5683789294  TIP3      1633            0.0000000000
     18698      1733  TIP3      H1             19.2801169178       16.2553116203       25.2814882252  TIP3      1633            0.0000000000
     18699      1733  TIP3      H2             20.1581032180       15.0933005805       24.8428056072  TIP3      1633            0.0000000000
     18700      1734  TIP3      OH2            17.9696184832       15.7603247472       37.1304971076  TIP3      1634            0.0000000000
     18701      1734  TIP3      H1             17.6215772058       14.8564546751       37.2996685054  TIP3      1634            0.0000000000
     18702      1734  TIP3      H2             18.8894360683       15.6465523547       37.4275006248  TIP3      1634            0.0000000000
     18703      1735  TIP3      OH2            20.6604262265       15.2442849791       28.4799284354  TIP3      1635            0.0000000000
     18704      1735  TIP3      H1             20.3600883540       16.1432319348       28.2421340926  TIP3      1635            0.0000000000
     18705      1735  TIP3      H2             20.2752116791       14.7501940473       27.7485124477  TIP3      1635            0.0000000000
     18706      1736  TIP3      OH2            11.1272754458       14.8540493198       33.1269535494  TIP3      1636            0.0000000000
     18707      1736  TIP3      H1             11.4402021969       15.0214171973       34.0298578150  TIP3      1636            0.0000000000
     18708      1736  TIP3      H2             10.8324721289       13.9255538127       33.1840858450  TIP3      1636            0.0000000000
     18709      1737  TIP3      OH2             8.2852631440       11.9688329177       27.9308505150  TIP3      1637            0.0000000000
     18710      1737  TIP3      H1              8.9571513942       12.0250401491       28.6463093874  TIP3      1637            0.0000000000
     18711      1737  TIP3      H2              8.5929050285       12.5923863040       27.2569963107  TIP3      1637            0.0000000000
     18712      1738  TIP3      OH2            19.4520531937       16.4663219861       32.7687401262  TIP3      1638            0.0000000000
     18713      1738  TIP3      H1             20.0395625639       15.8026461334       32.3424962766  TIP3      1638            0.0000000000
     18714      1738  TIP3      H2             18.9343043421       15.9161315536       33.4068328731  TIP3      1638            0.0000000000
     18715      1739  TIP3      OH2            16.8157846216       12.1025699829       27.9052260055  TIP3      1639            0.0000000000
     18716      1739  TIP3      H1             15.8759384925       12.1443609392       28.1595430962  TIP3      1639            0.0000000000
     18717      1739  TIP3      H2             17.1672705005       11.4404471756       28.5413870450  TIP3      1639            0.0000000000
     18718      1740  TIP3      OH2            11.3598632617       13.9647018263       26.5626270514  TIP3      1640            0.0000000000
     18719      1740  TIP3      H1             10.6463200003       14.2779057932       25.9514449152  TIP3      1640            0.0000000000
     18720      1740  TIP3      H2             11.5136318432       13.0369455470       26.2734249859  TIP3      1640            0.0000000000
     18721      1741  TIP3      OH2            15.1908414965       14.4261987861       24.0660455136  TIP3      1641            0.0000000000
     18722      1741  TIP3      H1             15.9009987322       14.1622666795       24.6983487781  TIP3      1641            0.0000000000
     18723      1741  TIP3      H2             14.9324711794       15.3059143731       24.3935471722  TIP3      1641            0.0000000000
     18724      1742  TIP3      OH2            20.7063180836       11.6916727390       30.7974821318  TIP3      1642            0.0000000000
     18725      1742  TIP3      H1             19.9609783865       11.7323556976       31.4300018658  TIP3      1642            0.0000000000
     18726      1742  TIP3      H2             20.4462697760       10.9765731650       30.1929203323  TIP3      1642            0.0000000000
     18727      1743  TIP3      OH2            23.6422913061       27.1603051610       37.3866108416  TIP3      1643            0.0000000000
     18728      1743  TIP3      H1             23.7524917535       27.1391570629       36.4179491696  TIP3      1643            0.0000000000
     18729      1743  TIP3      H2             24.4725466229       27.5723059180       37.6831952265  TIP3      1643            0.0000000000
     18730      1744  TIP3      OH2            11.6405628887       19.6249389143       36.7905598824  TIP3      1644            0.0000000000
     18731      1744  TIP3      H1             12.4118764486       19.9347649796       37.2969312504  TIP3      1644            0.0000000000
     18732      1744  TIP3      H2             10.9339143117       19.5752114796       37.4761876596  TIP3      1644            0.0000000000
     18733      1745  TIP3      OH2            17.0392099704       15.2368052539       29.0631093508  TIP3      1645            0.0000000000
     18734      1745  TIP3      H1             17.9451558279       14.9357276117       28.9158125239  TIP3      1645            0.0000000000
     18735      1745  TIP3      H2             16.6363885256       14.4304387504       29.4320232687  TIP3      1645            0.0000000000
     18736      1746  TIP3      OH2            12.1273223323       11.4348237359       25.8824727287  TIP3      1646            0.0000000000
     18737      1746  TIP3      H1             11.6143720396       10.7335456289       26.3411637671  TIP3      1646            0.0000000000
     18738      1746  TIP3      H2             12.8162947931       10.8940546612       25.4767741063  TIP3      1646            0.0000000000
     18739      1747  TIP3      OH2            16.2497697055       13.3708484256       31.8850555423  TIP3      1647            0.0000000000
     18740      1747  TIP3      H1             15.3984168700       13.8604148850       31.8555168283  TIP3      1647            0.0000000000
     18741      1747  TIP3      H2             16.8066092624       13.9996051886       32.3592577195  TIP3      1647            0.0000000000
     18742      1748  TIP3      OH2            16.6379445752       19.5244528134       23.8981021809  TIP3      1648            0.0000000000
     18743      1748  TIP3      H1             15.8385868277       19.0581693218       23.5682980473  TIP3      1648            0.0000000000
     18744      1748  TIP3      H2             16.3544654433       19.8356187328       24.7832903989  TIP3      1648            0.0000000000
     18745      1749  TIP3      OH2            24.6062521548       19.3211495392       32.7158249711  TIP3      1649            0.0000000000
     18746      1749  TIP3      H1             25.0683476803       19.9300874652       32.0950041845  TIP3      1649            0.0000000000
     18747      1749  TIP3      H2             23.7728577302       19.1695909868       32.2300410948  TIP3      1649            0.0000000000
     18748      1750  TIP3      OH2            20.2723431968       12.2069133600       21.7731592787  TIP3      1650            0.0000000000
     18749      1750  TIP3      H1             19.5636692484       12.8140108572       21.5783219300  TIP3      1650            0.0000000000
     18750      1750  TIP3      H2             20.9599128697       12.8039031026       22.1042542439  TIP3      1650            0.0000000000
     18751      1751  TIP3      OH2            18.0580694471       19.9888349840       34.9635904585  TIP3      1651            0.0000000000
     18752      1751  TIP3      H1             17.8237278358       19.8048232783       35.8851733188  TIP3      1651            0.0000000000
     18753      1751  TIP3      H2             17.8869383245       20.9458848820       34.9180078202  TIP3      1651            0.0000000000
     18754      1752  TIP3      OH2            21.3762029851       14.4437577164       23.3530293720  TIP3      1652            0.0000000000
     18755      1752  TIP3      H1             22.1787686647       14.4960466534       23.9116772432  TIP3      1652            0.0000000000
     18756      1752  TIP3      H2             21.4372843948       15.2396950774       22.7902790491  TIP3      1652            0.0000000000
     18757      1753  TIP3      OH2            12.0475530633       19.2482236604       29.2684216078  TIP3      1653            0.0000000000
     18758      1753  TIP3      H1             12.7419182910       19.0171963584       28.6220450221  TIP3      1653            0.0000000000
     18759      1753  TIP3      H2             12.1118928445       18.5115453361       29.9044650940  TIP3      1653            0.0000000000
     18760      1754  TIP3      OH2            18.6602382407       21.1517020851       22.9920147770  TIP3      1654            0.0000000000
     18761      1754  TIP3      H1             18.2101581196       21.9988136179       23.2333181868  TIP3      1654            0.0000000000
     18762      1754  TIP3      H2             18.0039135731       20.5077843866       23.3396922636  TIP3      1654            0.0000000000
     18763      1755  TIP3      OH2             9.1769207034       17.5841567771       34.6271491652  TIP3      1655            0.0000000000
     18764      1755  TIP3      H1              9.2028378694       17.0008289316       35.4085242183  TIP3      1655            0.0000000000
     18765      1755  TIP3      H2              8.6270130861       17.0910237425       33.9944415062  TIP3      1655            0.0000000000
     18766      1756  TIP3      OH2            15.4793375404       17.0136089545       36.6465827832  TIP3      1656            0.0000000000
     18767      1756  TIP3      H1             15.3516357154       16.2446618191       36.0677693756  TIP3      1656            0.0000000000
     18768      1756  TIP3      H2             16.3814125350       16.8598152654       36.9815982433  TIP3      1656            0.0000000000
     18769      1757  TIP3      OH2            20.9042653025       22.3704892279       35.0310769945  TIP3      1657            0.0000000000
     18770      1757  TIP3      H1             20.0148838411       22.4567171519       34.6567458538  TIP3      1657            0.0000000000
     18771      1757  TIP3      H2             20.7201095782       22.6718443567       35.9435088043  TIP3      1657            0.0000000000
     18772      1758  TIP3      OH2            25.4231352669       14.7492067478       23.5552163841  TIP3      1658            0.0000000000
     18773      1758  TIP3      H1             25.2167853618       14.6960060779       22.5834981627  TIP3      1658            0.0000000000
     18774      1758  TIP3      H2             25.9680106893       15.5673181849       23.5733128201  TIP3      1658            0.0000000000
     18775      1759  TIP3      OH2            26.5517611112       20.5688183336       35.9330817487  TIP3      1659            0.0000000000
     18776      1759  TIP3      H1             25.6218574646       20.7714828499       35.7202548468  TIP3      1659            0.0000000000
     18777      1759  TIP3      H2             26.9690107274       20.6019199391       35.0409167316  TIP3      1659            0.0000000000
     18778      1760  TIP3      OH2            21.9667220370       18.2572637428       30.7525880014  TIP3      1660            0.0000000000
     18779      1760  TIP3      H1             21.0685516556       17.9179288989       30.8415397749  TIP3      1660            0.0000000000
     18780      1760  TIP3      H2             22.4001916464       17.5484073967       30.2234908284  TIP3      1660            0.0000000000
     18781      1761  TIP3      OH2            14.2059575223       22.8672992021       26.4706245729  TIP3      1661            0.0000000000
     18782      1761  TIP3      H1             14.5898762001       23.7010944512       26.1208863826  TIP3      1661            0.0000000000
     18783      1761  TIP3      H2             13.2627631446       23.0460934288       26.3715230346  TIP3      1661            0.0000000000
     18784      1762  TIP3      OH2            10.7801615530       17.8092854755       21.9927537108  TIP3      1662            0.0000000000
     18785      1762  TIP3      H1             10.2433526855       18.4018466747       21.4600458410  TIP3      1662            0.0000000000
     18786      1762  TIP3      H2             10.1001654154       17.2399495746       22.3688789466  TIP3      1662            0.0000000000
     18787      1763  TIP3      OH2            15.6390291073       20.5155151359       26.5381337137  TIP3      1663            0.0000000000
     18788      1763  TIP3      H1             15.1019874610       21.3385170109       26.4944582971  TIP3      1663            0.0000000000
     18789      1763  TIP3      H2             15.0427669423       19.8692311382       26.9578362224  TIP3      1663            0.0000000000
     18790      1764  TIP3      OH2            16.2625055448       24.5009409338       33.3976692696  TIP3      1664            0.0000000000
     18791      1764  TIP3      H1             16.8896664611       25.0371894261       32.8712304045  TIP3      1664            0.0000000000
     18792      1764  TIP3      H2             16.8982261145       23.9816695057       33.9201924390  TIP3      1664            0.0000000000
     18793      1765  TIP3      OH2            14.3803239714       25.4395596936       25.6091658512  TIP3      1665            0.0000000000
     18794      1765  TIP3      H1             13.5129528891       25.5198015107       26.0633438364  TIP3      1665            0.0000000000
     18795      1765  TIP3      H2             14.8558408818       26.1641850246       26.0756996008  TIP3      1665            0.0000000000
     18796      1766  TIP3      OH2            19.2915135994       20.3259549557       32.5056236110  TIP3      1666            0.0000000000
     18797      1766  TIP3      H1             18.9997954197       20.0358980282       33.4015743980  TIP3      1666            0.0000000000
     18798      1766  TIP3      H2             19.7375310268       19.5275642412       32.1763772572  TIP3      1666            0.0000000000
     18799      1767  TIP3      OH2            22.5414386654       25.0063512407       35.0577335841  TIP3      1667            0.0000000000
     18800      1767  TIP3      H1             21.7564736717       24.4461511914       34.8849919129  TIP3      1667            0.0000000000
     18801      1767  TIP3      H2             22.5449803746       25.6001754661       34.2714887009  TIP3      1667            0.0000000000
     18802      1768  TIP3      OH2            26.5020452746       26.0702963006       21.7700421075  TIP3      1668            0.0000000000
     18803      1768  TIP3      H1             27.2483365248       26.6781157939       21.9178830438  TIP3      1668            0.0000000000
     18804      1768  TIP3      H2             25.7750743097       26.6076893186       22.1502713516  TIP3      1668            0.0000000000
     18805      1769  TIP3      OH2            10.9265691667       12.1503591437       34.2823063567  TIP3      1669            0.0000000000
     18806      1769  TIP3      H1             10.4625060270       12.5064571147       35.0569954084  TIP3      1669            0.0000000000
     18807      1769  TIP3      H2             10.9450194159       11.2058272478       34.5033085380  TIP3      1669            0.0000000000
     18808      1770  TIP3      OH2            22.9517507595       20.1580007262       24.3475578810  TIP3      1670            0.0000000000
     18809      1770  TIP3      H1             22.8201160151       19.3034299850       24.8095564382  TIP3      1670            0.0000000000
     18810      1770  TIP3      H2             23.9238014733       20.2117434497       24.3068962078  TIP3      1670            0.0000000000
     18811      1771  TIP3      OH2            10.3189394276       23.8910013574       32.6570758635  TIP3      1671            0.0000000000
     18812      1771  TIP3      H1             10.9698127799       23.1803728318       32.7321613827  TIP3      1671            0.0000000000
     18813      1771  TIP3      H2             10.4761931824       24.3883650241       33.4733483568  TIP3      1671            0.0000000000
     18814      1772  TIP3      OH2            14.5705930591       22.1788549605       22.5557555470  TIP3      1672            0.0000000000
     18815      1772  TIP3      H1             15.2868794098       21.8230051881       23.0963468884  TIP3      1672            0.0000000000
     18816      1772  TIP3      H2             14.6613670766       23.1457280920       22.7128089653  TIP3      1672            0.0000000000
     18817      1773  TIP3      OH2            19.5156724626       12.1130506882       33.3587607375  TIP3      1673            0.0000000000
     18818      1773  TIP3      H1             20.3853955972       12.3983511722       33.7120972065  TIP3      1673            0.0000000000
     18819      1773  TIP3      H2             19.4183317434       11.1978221517       33.6818173993  TIP3      1673            0.0000000000
     18820      1774  TIP3      OH2            20.4296592241       10.6852232387       24.2521536566  TIP3      1674            0.0000000000
     18821      1774  TIP3      H1             20.2441873472       11.1858059792       23.4343650610  TIP3      1674            0.0000000000
     18822      1774  TIP3      H2             20.7579932201       11.3390784514       24.9004630594  TIP3      1674            0.0000000000
     18823      1775  TIP3      OH2            17.4751364415       23.4247534431       23.7370280415  TIP3      1675            0.0000000000
     18824      1775  TIP3      H1             16.6618559081       23.9553750240       23.5799707992  TIP3      1675            0.0000000000
     18825      1775  TIP3      H2             17.9835742345       24.0552026426       24.2738983920  TIP3      1675            0.0000000000
     18826      1776  TIP3      OH2            17.2803524957       13.5447766118       25.5649934292  TIP3      1676            0.0000000000
     18827      1776  TIP3      H1             18.0567341110       14.1395442345       25.6329189628  TIP3      1676            0.0000000000
     18828      1776  TIP3      H2             17.2661362444       13.1223165993       26.4541887288  TIP3      1676            0.0000000000
     18829      1777  TIP3      OH2            18.3095824889       14.5882741682       34.4105964377  TIP3      1677            0.0000000000
     18830      1777  TIP3      H1             18.2421108815       14.7504788269       35.3725679429  TIP3      1677            0.0000000000
     18831      1777  TIP3      H2             18.7091498108       13.6909993828       34.3346235621  TIP3      1677            0.0000000000
     18832      1778  TIP3      OH2            18.2451223128       10.2104989668       26.2452187908  TIP3      1678            0.0000000000
     18833      1778  TIP3      H1             17.9116978876       10.8190845430       26.9392500651  TIP3      1678            0.0000000000
     18834      1778  TIP3      H2             19.0607148714       10.6701347244       25.9627277863  TIP3      1678            0.0000000000
     18835      1779  TIP3      OH2            15.1759193481       24.6991829933       23.1602870372  TIP3      1679            0.0000000000
     18836      1779  TIP3      H1             15.4467601587       25.5315971351       22.7166926874  TIP3      1679            0.0000000000
     18837      1779  TIP3      H2             14.7467539181       25.0418846023       23.9747199360  TIP3      1679            0.0000000000
     18838      1780  TIP3      OH2            24.2897090320       12.2458715738       35.5767378906  TIP3      1680            0.0000000000
     18839      1780  TIP3      H1             23.3741891770       12.0740649207       35.3014250591  TIP3      1680            0.0000000000
     18840      1780  TIP3      H2             24.7739252042       12.3675094948       34.7337048069  TIP3      1680            0.0000000000
     18841      1781  TIP3      OH2            22.9599293126       16.3399550776       29.1431156253  TIP3      1681            0.0000000000
     18842      1781  TIP3      H1             22.1484863733       15.8002711674       29.0606863728  TIP3      1681            0.0000000000
     18843      1781  TIP3      H2             23.5501645445       15.7358982141       29.6536942909  TIP3      1681            0.0000000000
     18844      1782  TIP3      OH2            23.7914636324       25.5922305803       30.8759710285  TIP3      1682            0.0000000000
     18845      1782  TIP3      H1             23.6609883146       26.2833818909       30.1775416285  TIP3      1682            0.0000000000
     18846      1782  TIP3      H2             24.7581386467       25.7283874709       31.0257061249  TIP3      1682            0.0000000000
     18847      1783  TIP3      OH2            11.1442893223        9.2162075244       29.8455147133  TIP3      1683            0.0000000000
     18848      1783  TIP3      H1             11.1879532506        9.1664149367       28.8697290885  TIP3      1683            0.0000000000
     18849      1783  TIP3      H2             10.7267375564        8.3585117068       30.0715656593  TIP3      1683            0.0000000000
     18850      1784  TIP3      OH2             9.9633125130       23.8680358076       26.0051448387  TIP3      1684            0.0000000000
     18851      1784  TIP3      H1              9.0041978986       23.9328223200       26.1116478191  TIP3      1684            0.0000000000
     18852      1784  TIP3      H2             10.0335394090       23.8592045949       25.0423416244  TIP3      1684            0.0000000000
     18853      1785  TIP3      OH2             9.3859010728       26.1612945855       36.8971358729  TIP3      1685            0.0000000000
     18854      1785  TIP3      H1             10.3020906772       26.0479973134       37.2108224090  TIP3      1685            0.0000000000
     18855      1785  TIP3      H2              9.0313518332       25.2547637285       36.9441813430  TIP3      1685            0.0000000000
     18856      1786  TIP3      OH2            13.6856379230       24.8360353542       38.7300194571  TIP3      1686            0.0000000000
     18857      1786  TIP3      H1             14.3296242926       24.3662837943       39.2734061843  TIP3      1686            0.0000000000
     18858      1786  TIP3      H2             13.7575258906       24.3572238928       37.8781593336  TIP3      1686            0.0000000000
     18859      1787  TIP3      OH2            20.4855756891       23.4443492453       37.5593471031  TIP3      1687            0.0000000000
     18860      1787  TIP3      H1             20.1706011124       22.6326809270       38.0285362903  TIP3      1687            0.0000000000
     18861      1787  TIP3      H2             21.3787404632       23.5423363132       37.9252195739  TIP3      1687            0.0000000000
     18862      1788  TIP3      OH2             9.1836457949       19.5107656482       37.8879577016  TIP3      1688            0.0000000000
     18863      1788  TIP3      H1              8.6943803429       18.6745211984       37.8930911671  TIP3      1688            0.0000000000
     18864      1788  TIP3      H2              8.7448011283       19.9769554490       37.1368819385  TIP3      1688            0.0000000000
     18865      1789  TIP3      OH2            15.9477699857       19.5809706358       36.9007736422  TIP3      1689            0.0000000000
     18866      1789  TIP3      H1             15.6493947701       20.2633338152       36.2612966784  TIP3      1689            0.0000000000
     18867      1789  TIP3      H2             15.6788172415       18.7286422154       36.4718660130  TIP3      1689            0.0000000000
     18868      1790  TIP3      OH2            19.0314239622       21.0931535246       19.9036462823  TIP3      1690            0.0000000000
     18869      1790  TIP3      H1             18.8839500106       20.9039309222       20.8479451800  TIP3      1690            0.0000000000
     18870      1790  TIP3      H2             18.8043454908       20.2561804417       19.4667145165  TIP3      1690            0.0000000000
     18871      1791  TIP3      OH2            21.6086112322       19.5831952119       34.8074535109  TIP3      1691            0.0000000000
     18872      1791  TIP3      H1             22.4247702819       20.1281290316       34.7435855167  TIP3      1691            0.0000000000
     18873      1791  TIP3      H2             20.9706440160       20.2992253836       34.9972735650  TIP3      1691            0.0000000000
     18874      1792  TIP3      OH2            10.4360972375       16.6721081487       37.4227785386  TIP3      1692            0.0000000000
     18875      1792  TIP3      H1             10.4004642142       15.9133027826       38.0221604038  TIP3      1692            0.0000000000
     18876      1792  TIP3      H2             10.7251843446       17.3749483182       38.0406616412  TIP3      1692            0.0000000000
     18877      1793  TIP3      OH2            14.5914205963       18.0733691080       22.8870723255  TIP3      1693            0.0000000000
     18878      1793  TIP3      H1             13.9682801821       17.8089962987       23.5890761086  TIP3      1693            0.0000000000
     18879      1793  TIP3      H2             14.3272513114       17.5038242014       22.1560602617  TIP3      1693            0.0000000000
     18880      1794  TIP3      OH2            13.8920669310       15.8417005296       34.5438974847  TIP3      1694            0.0000000000
     18881      1794  TIP3      H1             13.3404907652       16.6445184340       34.6337260100  TIP3      1694            0.0000000000
     18882      1794  TIP3      H2             14.5961274686       16.2066132450       33.9750686208  TIP3      1694            0.0000000000
     18883      1795  TIP3      OH2            19.6332777669       18.6107859713       38.3669747248  TIP3      1695            0.0000000000
     18884      1795  TIP3      H1             20.2490768367       18.4087218101       37.6466957200  TIP3      1695            0.0000000000
     18885      1795  TIP3      H2             18.9091701880       17.9897139503       38.2390207473  TIP3      1695            0.0000000000
     18886      1796  TIP3      OH2            15.2136760614       13.6700969649       35.5400161794  TIP3      1696            0.0000000000
     18887      1796  TIP3      H1             15.1293460717       13.0032846468       34.8207055294  TIP3      1696            0.0000000000
     18888      1796  TIP3      H2             14.9172582552       14.4752564768       35.0652757739  TIP3      1696            0.0000000000
     18889      1797  TIP3      OH2            15.1522371585       11.6670465471       33.5656607514  TIP3      1697            0.0000000000
     18890      1797  TIP3      H1             15.6844272083       12.1430046602       32.8855066616  TIP3      1697            0.0000000000
     18891      1797  TIP3      H2             14.2786315031       11.6470461137       33.1128199460  TIP3      1697            0.0000000000
     18892      1798  TIP3      OH2            16.1843836770       17.4029704105       33.6190641550  TIP3      1698            0.0000000000
     18893      1798  TIP3      H1             17.0189516167       17.7832660626       33.3106267036  TIP3      1698            0.0000000000
     18894      1798  TIP3      H2             15.5581626769       18.1158639522       33.3797678658  TIP3      1698            0.0000000000
     18895      1799  TIP3      OH2            20.4991703153       15.3200986398       38.6947417309  TIP3      1699            0.0000000000
     18896      1799  TIP3      H1             20.6107782455       14.5475774532       39.2926585399  TIP3      1699            0.0000000000
     18897      1799  TIP3      H2             21.4317636769       15.4751218353       38.4604658891  TIP3      1699            0.0000000000
     18898      1800  TIP3      OH2            22.5085247179       18.0513005349       36.9324903971  TIP3      1700            0.0000000000
     18899      1800  TIP3      H1             22.1992333052       18.6196689672       36.1936952260  TIP3      1700            0.0000000000
     18900      1800  TIP3      H2             23.4703622667       17.9635511103       36.7488130552  TIP3      1700            0.0000000000
     18901      1801  TIP3      OH2            13.1942210902       14.3090190762       37.8003819105  TIP3      1701            0.0000000000
     18902      1801  TIP3      H1             12.4166885515       13.9140732098       37.3515188746  TIP3      1701            0.0000000000
     18903      1801  TIP3      H2             13.8638259198       14.2418885684       37.0996504180  TIP3      1701            0.0000000000
     18904      1802  TIP3      OH2            16.0042863672        9.1235291422       33.3624978924  TIP3      1702            0.0000000000
     18905      1802  TIP3      H1             15.7117871332       10.0534426816       33.5247109127  TIP3      1702            0.0000000000
     18906      1802  TIP3      H2             15.1421838826        8.6738212801       33.2767082834  TIP3      1702            0.0000000000
     18907      1803  TIP3      OH2            17.0042856317       13.2644490308       37.5903364941  TIP3      1703            0.0000000000
     18908      1803  TIP3      H1             16.4646319357       12.8858209003       38.3099079533  TIP3      1703            0.0000000000
     18909      1803  TIP3      H2             16.3297707679       13.2821133281       36.8748191769  TIP3      1703            0.0000000000
     18910      1804  TIP3      OH2            19.5907661947       12.8080545240       36.8350331302  TIP3      1704            0.0000000000
     18911      1804  TIP3      H1             18.6450305143       12.7850840028       37.0829617227  TIP3      1704            0.0000000000
     18912      1804  TIP3      H2             19.9622948324       12.2253809052       37.5402340049  TIP3      1704            0.0000000000
     18913      1805  TIP3      OH2            20.8876752056       11.0131801055       38.4132882782  TIP3      1705            0.0000000000
     18914      1805  TIP3      H1             20.9726768534       10.0426407363       38.5485300033  TIP3      1705            0.0000000000
     18915      1805  TIP3      H2             20.9348791453       11.3993551516       39.3104689997  TIP3      1705            0.0000000000
     18916      1806  TIP3      OH2            11.0538347285       12.6348639012       37.4538512591  TIP3      1706            0.0000000000
     18917      1806  TIP3      H1             10.9331791995       11.7263545524       37.1339700902  TIP3      1706            0.0000000000
     18918      1806  TIP3      H2             11.3262510613       12.5010873753       38.3826210592  TIP3      1706            0.0000000000
     18919      1807  TIP3      OH2            15.7439109826        9.0192716830       36.0542063128  TIP3      1707            0.0000000000
     18920      1807  TIP3      H1             16.3969014085        8.3402099318       36.2969879775  TIP3      1707            0.0000000000
     18921      1807  TIP3      H2             15.8079608864        8.9794610649       35.0808138561  TIP3      1707            0.0000000000
     18922      1808  TIP3      OH2            15.2504972136        9.6691563773       38.9185430130  TIP3      1708            0.0000000000
     18923      1808  TIP3      H1             15.5441376489        9.5469051366       37.9908497508  TIP3      1708            0.0000000000
     18924      1808  TIP3      H2             14.9752816822       10.6018010431       38.9565857837  TIP3      1708            0.0000000000
     18925      1809  TIP3      OH2            16.1320552310       26.8640645463       21.6643884522  TIP3      1709            0.0000000000
     18926      1809  TIP3      H1             17.0738946297       27.1315512411       21.5233237430  TIP3      1709            0.0000000000
     18927      1809  TIP3      H2             15.6978247933       27.7102949518       21.5642421789  TIP3      1709            0.0000000000
     18928      1810  TIP3      OH2             8.3541555128       26.9485061568       26.1591404982  TIP3      1710            0.0000000000
     18929      1810  TIP3      H1              7.6719612238       26.3328642248       25.8098687592  TIP3      1710            0.0000000000
     18930      1810  TIP3      H2              8.7199294713       26.3902864507       26.8812764560  TIP3      1710            0.0000000000
     18931      1811  TIP3      OH2             9.1613529246       25.5455384845       28.3237681367  TIP3      1711            0.0000000000
     18932      1811  TIP3      H1              8.4699477830       25.0813713825       28.8252159705  TIP3      1711            0.0000000000
     18933      1811  TIP3      H2              9.7027337887       25.8865047851       29.0632054788  TIP3      1711            0.0000000000
     18934      1812  TIP3      OH2            26.3440643029       26.2867310771       31.1619471347  TIP3      1712            0.0000000000
     18935      1812  TIP3      H1             26.4760194675       26.9223042437       31.8909112623  TIP3      1712            0.0000000000
     18936      1812  TIP3      H2             27.2875035413       26.1377031474       30.9484338174  TIP3      1712            0.0000000000
     18937      1813  TIP3      OH2            26.0091098807       25.3330365593       34.0340499396  TIP3      1713            0.0000000000
     18938      1813  TIP3      H1             25.6245497697       24.7078844414       33.3846331903  TIP3      1713            0.0000000000
     18939      1813  TIP3      H2             26.3250386904       24.6873787464       34.7116283110  TIP3      1713            0.0000000000
     18940      1814  TIP3      OH2            24.9212877653       21.4812529500       38.8463974507  TIP3      1714            0.0000000000
     18941      1814  TIP3      H1             24.1016211756       21.4394348330       39.3788177631  TIP3      1714            0.0000000000
     18942      1814  TIP3      H2             25.3679879519       22.2619557161       39.2565930962  TIP3      1714            0.0000000000
     18943      1815  TIP3      OH2            25.8738343300       19.5025749611       24.2347824744  TIP3      1715            0.0000000000
     18944      1815  TIP3      H1             26.7858767181       19.8769646211       24.2808496606  TIP3      1715            0.0000000000
     18945      1815  TIP3      H2             25.9095866504       18.8443050228       24.9575131120  TIP3      1715            0.0000000000
     18946      1816  TIP3      OH2            26.4032434627       17.7950614508       26.4109145978  TIP3      1716            0.0000000000
     18947      1816  TIP3      H1             25.5822833495       17.3243342201       26.6952899870  TIP3      1716            0.0000000000
     18948      1816  TIP3      H2             26.8867282918       17.8644687437       27.2621183166  TIP3      1716            0.0000000000
     18949      1817  TIP3      OH2            26.3592435840       20.2790777878       30.9794341451  TIP3      1717            0.0000000000
     18950      1817  TIP3      H1             26.8725385500       19.4969001188       30.6967920439  TIP3      1717            0.0000000000
     18951      1817  TIP3      H2             26.5993416280       20.9845515717       30.3500688857  TIP3      1717            0.0000000000
     18952      1818  TIP3      OH2            24.5418484434       23.1576090525       33.1745243436  TIP3      1718            0.0000000000
     18953      1818  TIP3      H1             23.8156943635       23.7171685251       33.4947689140  TIP3      1718            0.0000000000
     18954      1818  TIP3      H2             24.1109669124       22.6957903412       32.4203148942  TIP3      1718            0.0000000000
     18955      1819  TIP3      OH2            26.5197791360       17.5728576095       22.3265067062  TIP3      1719            0.0000000000
     18956      1819  TIP3      H1             25.7225181304       17.5242126588       21.7813912704  TIP3      1719            0.0000000000
     18957      1819  TIP3      H2             26.2913652653       18.2812086762       22.9600991233  TIP3      1719            0.0000000000
     18958      1820  TIP3      OH2            25.1173727222       14.8139496728       20.7721545184  TIP3      1720            0.0000000000
     18959      1820  TIP3      H1             24.7547986153       15.3687159293       20.0566147610  TIP3      1720            0.0000000000
     18960      1820  TIP3      H2             24.9035815944       13.9329257920       20.4206385948  TIP3      1720            0.0000000000
     18961      1821  TIP3      OH2            24.2507089042       16.4058892363       26.8817114647  TIP3      1721            0.0000000000
     18962      1821  TIP3      H1             23.8443839055       15.6402503638       26.4332761782  TIP3      1721            0.0000000000
     18963      1821  TIP3      H2             23.8235024894       16.3409579601       27.7704998096  TIP3      1721            0.0000000000
     18964      1822  TIP3      OH2             8.9164217723       18.4285694687       30.6156382639  TIP3      1722            0.0000000000
     18965      1822  TIP3      H1              8.8228238406       18.0484504975       29.7184101894  TIP3      1722            0.0000000000
     18966      1822  TIP3      H2              9.8333602032       18.1469053085       30.8643570901  TIP3      1722            0.0000000000
     18967      1823  TIP3      OH2            25.2596702219       18.1239978869       36.3604747588  TIP3      1723            0.0000000000
     18968      1823  TIP3      H1             25.9805025627       17.4649078994       36.5268951294  TIP3      1723            0.0000000000
     18969      1823  TIP3      H2             25.7838319969       18.8821199982       36.0333561006  TIP3      1723            0.0000000000
     18970      1824  TIP3      OH2            26.2682360681       15.8698968621       37.2407902712  TIP3      1724            0.0000000000
     18971      1824  TIP3      H1             25.3569790057       15.7639754829       36.9004045838  TIP3      1724            0.0000000000
     18972      1824  TIP3      H2             26.5864707203       14.9460468444       37.2149938046  TIP3      1724            0.0000000000
     18973      1825  TIP3      OH2            23.4094609851       14.1385724760       25.3060437250  TIP3      1725            0.0000000000
     18974      1825  TIP3      H1             23.5760151177       13.1922809738       25.5065573540  TIP3      1725            0.0000000000
     18975      1825  TIP3      H2             24.1453525647       14.2659203377       24.6704900635  TIP3      1725            0.0000000000
     18976      1826  TIP3      OH2            24.3385504638       14.5321494050       30.5795020014  TIP3      1726            0.0000000000
     18977      1826  TIP3      H1             25.3218405580       14.6041199763       30.4874076944  TIP3      1726            0.0000000000
     18978      1826  TIP3      H2             24.2981837256       14.5155440489       31.5517052527  TIP3      1726            0.0000000000
     18979      1827  TIP3      OH2            24.4436252676       15.1250321475       33.3963671046  TIP3      1727            0.0000000000
     18980      1827  TIP3      H1             23.5391783626       15.3692820542       33.6679026386  TIP3      1727            0.0000000000
     18981      1827  TIP3      H2             24.8203255810       15.9770585069       33.0727200993  TIP3      1727            0.0000000000
     18982      1828  TIP3      OH2             8.6220173550       13.5540135335       36.7983411200  TIP3      1728            0.0000000000
     18983      1828  TIP3      H1              9.4503543784       13.4435304689       37.3182915915  TIP3      1728            0.0000000000
     18984      1828  TIP3      H2              8.1921972017       12.6835885272       36.9217605265  TIP3      1728            0.0000000000
     18985      1829  TIP3      OH2            26.7768326379        8.6867911877       38.6079575600  TIP3      1729            0.0000000000
     18986      1829  TIP3      H1             27.4916396839        8.2557611657       38.0837751725  TIP3      1729            0.0000000000
     18987      1829  TIP3      H2             26.5489990826        9.3824828984       37.9509511303  TIP3      1729            0.0000000000
     18988      1830  TIP3      OH2            24.1521259556       11.3042510434       25.3341013584  TIP3      1730            0.0000000000
     18989      1830  TIP3      H1             24.6574946862       11.0434190785       26.1287929857  TIP3      1730            0.0000000000
     18990      1830  TIP3      H2             23.7651217799       10.4520651277       25.0658114670  TIP3      1730            0.0000000000
     18991      1831  TIP3      OH2             9.8700790548       11.7288421366       30.1689350953  TIP3      1731            0.0000000000
     18992      1831  TIP3      H1             10.2977407854       10.8441443608       30.1257746373  TIP3      1731            0.0000000000
     18993      1831  TIP3      H2             10.6347935664       12.3345181479       30.1936840340  TIP3      1731            0.0000000000
     18994      1832  TIP3      OH2             8.4508871549       14.7863231267       31.0706652109  TIP3      1732            0.0000000000
     18995      1832  TIP3      H1              8.9246672181       14.3066709731       30.3777105406  TIP3      1732            0.0000000000
     18996      1832  TIP3      H2              8.8706168892       15.6555105959       31.0069999406  TIP3      1732            0.0000000000
     18997      1833  TIP3      OH2            26.1995213315       10.5886564901       36.7736762820  TIP3      1733            0.0000000000
     18998      1833  TIP3      H1             25.5533113116       11.3152531310       36.9112469594  TIP3      1733            0.0000000000
     18999      1833  TIP3      H2             25.8212000249       10.2236217175       35.9503878631  TIP3      1733            0.0000000000
     19000      1834  TIP3      OH2            26.3472148309       10.9420650648       21.6104692045  TIP3      1734            0.0000000000
     19001      1834  TIP3      H1             27.1654331021       10.4214526057       21.4715788307  TIP3      1734            0.0000000000
     19002      1834  TIP3      H2             26.4108817766       11.0175277382       22.5691279059  TIP3      1734            0.0000000000
     19003      1835  TIP3      OH2             8.4187419255       11.4377963992       25.0839624766  TIP3      1735            0.0000000000
     19004      1835  TIP3      H1              7.4453637750       11.4749896154       25.1534460450  TIP3      1735            0.0000000000
     19005      1835  TIP3      H2              8.5321882687       11.2199879438       24.1497967405  TIP3      1735            0.0000000000
     19006      1836  TIP3      OH2            23.8126942008       25.7688200451       27.1238074798  TIP3      1736            0.0000000000
     19007      1836  TIP3      H1             24.3857102813       26.2084330644       26.4758845865  TIP3      1736            0.0000000000
     19008      1836  TIP3      H2             23.7011917256       26.4587174916       27.8074431941  TIP3      1736            0.0000000000
     19009      1837  TIP3      OH2             8.3753393677        9.5221963937       33.0786053147  TIP3      1737            0.0000000000
     19010      1837  TIP3      H1              7.7778046238        9.0802253014       33.7061687834  TIP3      1737            0.0000000000
     19011      1837  TIP3      H2              8.0692248202       10.4406456005       33.0735399824  TIP3      1737            0.0000000000
     19012      1838  TIP3      OH2            10.9547869229       22.8261584630       37.4786246262  TIP3      1738            0.0000000000
     19013      1838  TIP3      H1             10.1048628747       23.0794129023       37.0877163179  TIP3      1738            0.0000000000
     19014      1838  TIP3      H2             10.7522065366       22.7486355493       38.4236321739  TIP3      1738            0.0000000000
     19015      1839  TIP3      OH2            13.5602339417       24.2173575175       33.9341657223  TIP3      1739            0.0000000000
     19016      1839  TIP3      H1             13.3803498201       25.1090242138       33.5724410977  TIP3      1739            0.0000000000
     19017      1839  TIP3      H2             14.5413665903       24.2013251607       33.8404948536  TIP3      1739            0.0000000000
     19018      1840  TIP3      OH2            17.8359956243       25.2554401572       36.4301388966  TIP3      1740            0.0000000000
     19019      1840  TIP3      H1             17.9079207652       24.9787677331       37.3649482279  TIP3      1740            0.0000000000
     19020      1840  TIP3      H2             18.6826889476       25.7320725723       36.3263895502  TIP3      1740            0.0000000000
     19021      1841  TIP3      OH2            20.1983377269       26.9944857712       35.9773717363  TIP3      1741            0.0000000000
     19022      1841  TIP3      H1             21.0739942729       26.7218119244       35.6658057185  TIP3      1741            0.0000000000
     19023      1841  TIP3      H2             20.3990927360       27.3349805529       36.8755576980  TIP3      1741            0.0000000000
     19024      1842  TIP3      OH2            24.8851290965        9.1010434279       34.7742081680  TIP3      1742            0.0000000000
     19025      1842  TIP3      H1             24.0296677348        9.1363881127       34.3249413938  TIP3      1742            0.0000000000
     19026      1842  TIP3      H2             25.2063699050        8.1992615963       34.5253553225  TIP3      1742            0.0000000000
     19027      1843  TIP3      OH2            10.9129473898       27.2022875027       33.7320658822  TIP3      1743            0.0000000000
     19028      1843  TIP3      H1             10.0617895245       27.5142798938       33.3388845285  TIP3      1743            0.0000000000
     19029      1843  TIP3      H2             10.9535702905       27.7770740445       34.5207655014  TIP3      1743            0.0000000000
     19030      1844  TIP3      OH2            13.2635372857       26.6878308860       32.5652598188  TIP3      1744            0.0000000000
     19031      1844  TIP3      H1             12.3410848301       26.9393888812       32.8287002217  TIP3      1744            0.0000000000
     19032      1844  TIP3      H2             13.3527760869       27.2076716625       31.7545222672  TIP3      1744            0.0000000000
     19033      1845  TIP3      OH2            17.9495918298       26.5176668009       31.9138659378  TIP3      1745            0.0000000000
     19034      1845  TIP3      H1             17.2002517126       27.0282687058       31.5546448376  TIP3      1745            0.0000000000
     19035      1845  TIP3      H2             18.2753450291       27.1263547854       32.6053651548  TIP3      1745            0.0000000000
     19036      1846  TIP3      OH2            20.0852785640       25.1272364487       33.1048680066  TIP3      1746            0.0000000000
     19037      1846  TIP3      H1             19.4477882326       25.5262078594       32.4840841789  TIP3      1746            0.0000000000
     19038      1846  TIP3      H2             20.8564290199       25.6943125859       32.9151620570  TIP3      1746            0.0000000000
     19039      1847  TIP3      OH2            22.5699072334       26.6847101304       32.8974815597  TIP3      1747            0.0000000000
     19040      1847  TIP3      H1             22.8245015295       27.5746353894       32.5686731842  TIP3      1747            0.0000000000
     19041      1847  TIP3      H2             22.8650329446       26.1816244567       32.0960357092  TIP3      1747            0.0000000000
     19042      1848  TIP3      OH2            10.7991387383       25.5993645836       30.5685942684  TIP3      1748            0.0000000000
     19043      1848  TIP3      H1             10.4886803793       25.0032571702       31.2858603840  TIP3      1748            0.0000000000
     19044      1848  TIP3      H2             11.5361820760       25.0683290074       30.1865482973  TIP3      1748            0.0000000000
     19045      1849  TIP3      OH2            12.9023828444       24.5176736553       29.2288573855  TIP3      1749            0.0000000000
     19046      1849  TIP3      H1             12.8236548889       23.5792758736       29.4914368860  TIP3      1749            0.0000000000
     19047      1849  TIP3      H2             13.7344976052       24.7732243835       29.6796811289  TIP3      1749            0.0000000000
     19048      1850  TIP3      OH2            15.1332692904       24.8691103530       30.6409311329  TIP3      1750            0.0000000000
     19049      1850  TIP3      H1             15.6132647593       24.0675086623       30.3955977639  TIP3      1750            0.0000000000
     19050      1850  TIP3      H2             15.0948784174       24.7882086157       31.6117650038  TIP3      1750            0.0000000000
     19051      1851  TIP3      OH2            17.9785248098        9.8872449580       29.1394820539  TIP3      1751            0.0000000000
     19052      1851  TIP3      H1             17.1468939451        9.3927752975       29.3566545428  TIP3      1751            0.0000000000
     19053      1851  TIP3      H2             18.5820800147        9.1283736282       29.0795346683  TIP3      1751            0.0000000000
     19054      1852  TIP3      OH2            23.5928118978        8.6753580264       28.9334857323  TIP3      1752            0.0000000000
     19055      1852  TIP3      H1             24.2634955857        9.2519781091       28.4887805195  TIP3      1752            0.0000000000
     19056      1852  TIP3      H2             22.7566684115        9.1010661652       28.6615143223  TIP3      1752            0.0000000000
     19057      1853  TIP3      OH2            25.3791184467        9.8897564391       27.4187768768  TIP3      1753            0.0000000000
     19058      1853  TIP3      H1             25.8592279624        9.0681709032       27.1383023622  TIP3      1753            0.0000000000
     19059      1853  TIP3      H2             26.1173537610       10.5289720163       27.5350639419  TIP3      1753            0.0000000000
     19060      1854  TIP3      OH2            10.9870750235        9.3237330723       27.0232706036  TIP3      1754            0.0000000000
     19061      1854  TIP3      H1             10.0234737603        9.3697690207       26.9275153811  TIP3      1754            0.0000000000
     19062      1854  TIP3      H2             11.2227948795        8.3822767858       26.8586850863  TIP3      1754            0.0000000000
     19063      1855  TIP3      OH2            15.1387700691        9.0830951482       26.7958421982  TIP3      1755            0.0000000000
     19064      1855  TIP3      H1             15.9955680968        9.3662880408       26.4568462676  TIP3      1755            0.0000000000
     19065      1855  TIP3      H2             15.3216617087        9.0134192988       27.7430147744  TIP3      1755            0.0000000000
     19066      1856  TIP3      OH2            21.0117082150        9.3651760068       27.9967839643  TIP3      1756            0.0000000000
     19067      1856  TIP3      H1             20.4375909674        9.5801575543       27.2497186326  TIP3      1756            0.0000000000
     19068      1856  TIP3      H2             20.5392210617        8.6028323305       28.3991162381  TIP3      1756            0.0000000000
     19069      1857  TIP3      OH2            23.0728283767        8.6922550767       24.0661118195  TIP3      1757            0.0000000000
     19070      1857  TIP3      H1             22.4828687986        9.3697695969       23.7035769511  TIP3      1757            0.0000000000
     19071      1857  TIP3      H2             22.4310741964        7.9519693422       24.1761636796  TIP3      1757            0.0000000000
     19072      1858  TIP3      OH2             9.1829952048       25.0355998686       23.2300943491  TIP3      1758            0.0000000000
     19073      1858  TIP3      H1              9.0209729401       25.6199769143       22.4592669669  TIP3      1758            0.0000000000
     19074      1858  TIP3      H2              9.1500290765       25.7215930773       23.9081799177  TIP3      1758            0.0000000000
     19075      1859  TIP3      OH2            16.8469490011       11.2478243087       24.0116261958  TIP3      1759            0.0000000000
     19076      1859  TIP3      H1             17.2921841260       10.6643000309       24.6433405209  TIP3      1759            0.0000000000
     19077      1859  TIP3      H2             16.9198001152       12.1027668624       24.4718649750  TIP3      1759            0.0000000000
     19078      1860  TIP3      OH2            25.4156082257       25.6114869987       24.7777710741  TIP3      1760            0.0000000000
     19079      1860  TIP3      H1             24.8309009267       24.8731968208       24.5625418496  TIP3      1760            0.0000000000
     19080      1860  TIP3      H2             25.0384457510       26.3451632922       24.2436626625  TIP3      1760            0.0000000000
     19081      1861  TIP3      OH2            10.6573932733        9.6997548956       36.1114399854  TIP3      1761            0.0000000000
     19082      1861  TIP3      H1             10.0797886633        9.0003394524       36.4807945352  TIP3      1761            0.0000000000
     19083      1861  TIP3      H2             11.4522179726        9.6212027096       36.6736249380  TIP3      1761            0.0000000000
     19084      1862  TIP3      OH2            12.6096408755        9.4319316440       38.2518085409  TIP3      1762            0.0000000000
     19085      1862  TIP3      H1             13.5685859405        9.2291623290       38.2397378439  TIP3      1762            0.0000000000
     19086      1862  TIP3      H2             12.2494721871        8.6263601061       38.6860387006  TIP3      1762            0.0000000000
     19087      1863  TIP3      OH2            21.0925688137        8.3463872865       38.6134264323  TIP3      1763            0.0000000000
     19088      1863  TIP3      H1             21.2101515045        7.9662571247       39.5083853571  TIP3      1763            0.0000000000
     19089      1863  TIP3      H2             21.9366380519        8.1015122589       38.1761659965  TIP3      1763            0.0000000000
     19090      1864  TIP3      OH2            24.4892729233       24.4521124991       36.8112100811  TIP3      1764            0.0000000000
     19091      1864  TIP3      H1             23.8728000302       24.4863628383       36.0454317904  TIP3      1764            0.0000000000
     19092      1864  TIP3      H2             24.3681432072       25.3480925813       37.1759686086  TIP3      1764            0.0000000000
     19093      1865  TIP3      OH2            27.5802855053       15.0570161684       25.5416088735  TIP3      1765            0.0000000000
     19094      1865  TIP3      H1             27.4392036888       15.8287619691       26.0984260278  TIP3      1765            0.0000000000
     19095      1865  TIP3      H2             26.6859143645       14.7021568139       25.4944014713  TIP3      1765            0.0000000000
     19096      1866  TIP3      OH2            28.1478650299       17.4920457850       28.3954604845  TIP3      1766            0.0000000000
     19097      1866  TIP3      H1             28.3132270297       16.5267477225       28.3246123389  TIP3      1766            0.0000000000
     19098      1866  TIP3      H2             29.0609375271       17.8293685946       28.2404857349  TIP3      1766            0.0000000000
     19099      1867  TIP3      OH2            28.7043471259       14.8402782778       28.2978858216  TIP3      1767            0.0000000000
     19100      1867  TIP3      H1             29.2584256071       14.9625821328       29.1022688568  TIP3      1767            0.0000000000
     19101      1867  TIP3      H2             29.1473828103       14.0649070581       27.8884114727  TIP3      1767            0.0000000000
     19102      1868  TIP3      OH2            28.2441654665       20.8219267889       24.0841893503  TIP3      1768            0.0000000000
     19103      1868  TIP3      H1             28.2351826690       21.2761613266       23.2246604467  TIP3      1768            0.0000000000
     19104      1868  TIP3      H2             28.3503094772       21.5454699202       24.7294143668  TIP3      1768            0.0000000000
     19105      1869  TIP3      OH2            27.8502473241       19.8766398203       33.6824899716  TIP3      1769            0.0000000000
     19106      1869  TIP3      H1             27.4605240025       19.7292136095       32.8076442141  TIP3      1769            0.0000000000
     19107      1869  TIP3      H2             27.9339695375       18.9474444710       34.0036613764  TIP3      1769            0.0000000000
     19108      1870  TIP3      OH2            27.0311517525       22.8624577130       29.9903365602  TIP3      1770            0.0000000000
     19109      1870  TIP3      H1             27.9714176749       22.8302333312       29.7574889691  TIP3      1770            0.0000000000
     19110      1870  TIP3      H2             27.0520804400       23.2763574585       30.8718454300  TIP3      1770            0.0000000000
     19111      1871  TIP3      OH2            27.0920132114       11.9377247072       27.5189758856  TIP3      1771            0.0000000000
     19112      1871  TIP3      H1             27.5331789923       11.9485465609       28.4018153901  TIP3      1771            0.0000000000
     19113      1871  TIP3      H2             27.6696672210       12.5341433740       27.0239270530  TIP3      1771            0.0000000000
     19114      1872  TIP3      OH2            27.5377271725       13.0218767353       23.3110028359  TIP3      1772            0.0000000000
     19115      1872  TIP3      H1             28.1957394405       13.7035669375       23.0682418035  TIP3      1772            0.0000000000
     19116      1872  TIP3      H2             26.7421331982       13.5741773243       23.4287427636  TIP3      1772            0.0000000000
     19117      1873  TIP3      OH2            27.6466542124       17.4416399996       34.7624225703  TIP3      1773            0.0000000000
     19118      1873  TIP3      H1             27.5126436342       16.8264704890       35.5032315255  TIP3      1773            0.0000000000
     19119      1873  TIP3      H2             27.0826518615       17.0507753191       34.0649999140  TIP3      1773            0.0000000000
     19120      1874  TIP3      OH2            29.1376836503       17.4205805960       21.2636561974  TIP3      1774            0.0000000000
     19121      1874  TIP3      H1             29.1912259035       17.8867847930       22.1013633230  TIP3      1774            0.0000000000
     19122      1874  TIP3      H2             28.1730527451       17.2920372583       21.1900099879  TIP3      1774            0.0000000000
     19123      1875  TIP3      OH2            28.7931460966       23.9066615071       32.3063502880  TIP3      1775            0.0000000000
     19124      1875  TIP3      H1             29.0359977195       23.1001746821       32.7831721469  TIP3      1775            0.0000000000
     19125      1875  TIP3      H2             29.0276336720       24.5810543419       32.9589801030  TIP3      1775            0.0000000000
     19126      1876  TIP3      OH2            29.1561001071       14.9128548159       22.1703011002  TIP3      1776            0.0000000000
     19127      1876  TIP3      H1             29.3327520114       15.8797070904       22.1204503797  TIP3      1776            0.0000000000
     19128      1876  TIP3      H2             29.2615490871       14.6979845565       21.2303496197  TIP3      1776            0.0000000000
     19129      1877  TIP3      OH2            28.6227770087       23.6027133552       26.0664465077  TIP3      1777            0.0000000000
     19130      1877  TIP3      H1             28.2202723520       23.8950452750       26.9034746179  TIP3      1777            0.0000000000
     19131      1877  TIP3      H2             28.2228977289       24.2187966940       25.4236169609  TIP3      1777            0.0000000000
     19132      1878  TIP3      OH2            28.1821554730       26.3636592151       36.8940454649  TIP3      1778            0.0000000000
     19133      1878  TIP3      H1             29.1334743026       26.3028618460       37.0916833792  TIP3      1778            0.0000000000
     19134      1878  TIP3      H2             27.9585764246       25.4518117808       36.6531830502  TIP3      1778            0.0000000000
     19135      1879  TIP3      OH2            28.1130884645       19.4646803706       37.9170526790  TIP3      1779            0.0000000000
     19136      1879  TIP3      H1             27.9043986410       18.5135473057       37.8236176933  TIP3      1779            0.0000000000
     19137      1879  TIP3      H2             27.5919711905       19.8793862569       37.1966570958  TIP3      1779            0.0000000000
     19138      1880  TIP3      OH2            28.9807926289       16.8362070063       37.3328880944  TIP3      1780            0.0000000000
     19139      1880  TIP3      H1             29.1839370905       15.9155559658       37.1295885959  TIP3      1780            0.0000000000
     19140      1880  TIP3      H2             29.4545532580       16.9434868828       38.1765730429  TIP3      1780            0.0000000000
     19141      1881  TIP3      OH2            27.9803596663       21.5819982586       21.3753460857  TIP3      1781            0.0000000000
     19142      1881  TIP3      H1             28.1231787056       22.0744466894       20.5527576259  TIP3      1781            0.0000000000
     19143      1881  TIP3      H2             27.9121083823       20.6768527767       21.0536276523  TIP3      1781            0.0000000000
     19144      1882  TIP3      OH2            26.9866202567       26.6287198206       26.5754331092  TIP3      1782            0.0000000000
     19145      1882  TIP3      H1             26.4626524986       26.0813017565       25.9433927526  TIP3      1782            0.0000000000
     19146      1882  TIP3      H2             27.1744890816       25.9642828663       27.2840814057  TIP3      1782            0.0000000000
     19147      1883  TIP3      OH2            27.7538192534       24.9304582695       28.4261407251  TIP3      1783            0.0000000000
     19148      1883  TIP3      H1             27.1341502745       24.3976203725       28.9684092344  TIP3      1783            0.0000000000
     19149      1883  TIP3      H2             28.1612824214       25.4909913925       29.1246184195  TIP3      1783            0.0000000000
     19150      1884  TIP3      OH2            28.0192906394       18.0915111366       31.0843255046  TIP3      1784            0.0000000000
     19151      1884  TIP3      H1             28.1008356724       17.7547982420       30.1640322236  TIP3      1784            0.0000000000
     19152      1884  TIP3      H2             28.9598024878       18.2506833645       31.3414811485  TIP3      1784            0.0000000000
     19153      1885  TIP3      OH2            27.0987684722       13.2508751513       36.7504597190  TIP3      1785            0.0000000000
     19154      1885  TIP3      H1             28.0436502333       13.4638678828       36.6054038332  TIP3      1785            0.0000000000
     19155      1885  TIP3      H2             27.0936905430       12.3027362729       36.5307113515  TIP3      1785            0.0000000000
     19156      1886  TIP3      OH2            28.4137633741       11.9870275056       29.8405703454  TIP3      1786            0.0000000000
     19157      1886  TIP3      H1             28.5994630812       11.0617734469       30.0554891469  TIP3      1786            0.0000000000
     19158      1886  TIP3      H2             28.8265784016       12.4153010226       30.6258413688  TIP3      1786            0.0000000000
     19159      1887  TIP3      OH2            26.9544363235       14.8948570848       30.4566457080  TIP3      1787            0.0000000000
     19160      1887  TIP3      H1             27.2419440059       14.7868054834       29.5341333887  TIP3      1787            0.0000000000
     19161      1887  TIP3      H2             27.8219983332       15.0625093230       30.8725530659  TIP3      1787            0.0000000000
     19162      1888  TIP3      OH2            27.3230094139       10.5921518170       24.4262843309  TIP3      1788            0.0000000000
     19163      1888  TIP3      H1             26.4988223114       10.4691627086       24.9031703234  TIP3      1788            0.0000000000
     19164      1888  TIP3      H2             27.3125686341       11.5511963995       24.1963517562  TIP3      1788            0.0000000000
     19165      1889  TIP3      OH2            26.9154109687        9.7628114207       33.1430905122  TIP3      1789            0.0000000000
     19166      1889  TIP3      H1             26.2530822867        9.5718297346       33.8387922948  TIP3      1789            0.0000000000
     19167      1889  TIP3      H2             26.4191336634       10.3626647873       32.5683397432  TIP3      1789            0.0000000000
     19168      1890  TIP3      OH2            28.9788522291       26.0159504938       30.6782850683  TIP3      1790            0.0000000000
     19169      1890  TIP3      H1             28.9321236148       25.2134025407       31.2471208078  TIP3      1790            0.0000000000
     19170      1890  TIP3      H2             29.9388623142       26.2202065080       30.6983584383  TIP3      1790            0.0000000000
     19171      1891  TIP3      OH2            28.5033946732        9.5142033325       22.2872290891  TIP3      1791            0.0000000000
     19172      1891  TIP3      H1             29.4603914095        9.3096904080       22.2553978743  TIP3      1791            0.0000000000
     19173      1891  TIP3      H2             28.3454488208        9.7114302680       23.2334771076  TIP3      1791            0.0000000000
     19174      1892  TIP3      OH2            28.4137008830       25.0274758893       23.6354082010  TIP3      1792            0.0000000000
     19175      1892  TIP3      H1             27.6114984118       24.7426872406       23.1737552149  TIP3      1792            0.0000000000
     19176      1892  TIP3      H2             28.3241219087       25.9956451920       23.6061048514  TIP3      1792            0.0000000000
     19177      1893  TIP3      OH2           -14.0362968917      -29.8964888805       32.8171739670  TIP3      1793            0.0000000000
     19178      1893  TIP3      H1            -14.6826086969      -29.3103602822       32.3943607829  TIP3      1793            0.0000000000
     19179      1893  TIP3      H2            -13.2879784901      -29.7867850941       32.2063766652  TIP3      1793            0.0000000000
     19180      1894  TIP3      OH2           -21.5746393208       27.8918744933       30.0696182689  TIP3      1794            0.0000000000
     19181      1894  TIP3      H1            -21.7304989499       26.9761995507       29.7825619570  TIP3      1794            0.0000000000
     19182      1894  TIP3      H2            -22.5074356340       28.2052222699       30.1921704603  TIP3      1794            0.0000000000
     19183      1895  TIP3      OH2           -12.4149241238       27.6150380430       23.1995116246  TIP3      1795            0.0000000000
     19184      1895  TIP3      H1            -13.2844124052       28.0372082691       23.1880139687  TIP3      1795            0.0000000000
     19185      1895  TIP3      H2            -12.3174048401       27.3005189784       22.2804330400  TIP3      1795            0.0000000000
     19186      1896  TIP3      OH2           -23.9946360109       29.0074136733       30.5688664883  TIP3      1796            0.0000000000
     19187      1896  TIP3      H1            -24.9695723845       28.9073353910       30.4532611839  TIP3      1796            0.0000000000
     19188      1896  TIP3      H2            -23.8653800883       29.9283086149       30.2667771466  TIP3      1796            0.0000000000
     19189      1897  TIP3      OH2           -19.0208585428       28.0922243974       34.0361797962  TIP3      1797            0.0000000000
     19190      1897  TIP3      H1            -18.5031346597       27.7115685785       34.7730060638  TIP3      1797            0.0000000000
     19191      1897  TIP3      H2            -19.9193245772       28.1086688828       34.4156945225  TIP3      1797            0.0000000000
     19192      1898  TIP3      OH2           -19.2760182404      -29.9488386524       26.0679246588  TIP3      1798            0.0000000000
     19193      1898  TIP3      H1            -18.8125652132      -30.1887046793       26.8867064777  TIP3      1798            0.0000000000
     19194      1898  TIP3      H2            -19.5280296404      -29.0201334462       26.1962791934  TIP3      1798            0.0000000000
     19195      1899  TIP3      OH2           -26.5169048882       28.3515471368       29.8209788714  TIP3      1799            0.0000000000
     19196      1899  TIP3      H1            -26.5087856859       28.1351467378       28.8614414175  TIP3      1799            0.0000000000
     19197      1899  TIP3      H2            -26.8776642101       27.5040906069       30.1669728509  TIP3      1799            0.0000000000
     19198      1900  TIP3      OH2           -22.0534343175       27.7419443825       33.7646888749  TIP3      1800            0.0000000000
     19199      1900  TIP3      H1            -22.1120453627       28.7121987740       33.6536530097  TIP3      1800            0.0000000000
     19200      1900  TIP3      H2            -22.8308076467       27.4640328551       33.2567026383  TIP3      1800            0.0000000000
     19201      1901  TIP3      OH2           -21.7697819952       27.4763687416       36.3670499789  TIP3      1801            0.0000000000
     19202      1901  TIP3      H1            -21.1904943065       26.6921101375       36.4866038620  TIP3      1801            0.0000000000
     19203      1901  TIP3      H2            -21.9935632443       27.3633650720       35.4161048095  TIP3      1801            0.0000000000
     19204      1902  TIP3      OH2           -22.3344902330       28.6724028486       38.8930059397  TIP3      1802            0.0000000000
     19205      1902  TIP3      H1            -22.1302475399       28.1815641038       38.0778796669  TIP3      1802            0.0000000000
     19206      1902  TIP3      H2            -21.4646807655       29.0316271034       39.1217418363  TIP3      1802            0.0000000000
     19207      1903  TIP3      OH2           -11.0793056442       27.3440770492       38.9258471930  TIP3      1803            0.0000000000
     19208      1903  TIP3      H1            -10.4408534057       26.9657538516       38.2920377723  TIP3      1803            0.0000000000
     19209      1903  TIP3      H2            -11.0678421742       28.2677749668       38.6275233648  TIP3      1803            0.0000000000
     19210      1904  TIP3      OH2            29.7378237013       28.0242724592       33.2076444545  TIP3      1804            0.0000000000
     19211      1904  TIP3      H1             28.7644000858       28.1101567984       33.2061678222  TIP3      1804            0.0000000000
     19212      1904  TIP3      H2             29.9858070869       28.9745522710       33.2198229228  TIP3      1804            0.0000000000
     19213      1905  TIP3      OH2           -12.6955212119       27.7746729377       34.7351527305  TIP3      1805            0.0000000000
     19214      1905  TIP3      H1            -13.2554076987       28.1366522966       34.0148450985  TIP3      1805            0.0000000000
     19215      1905  TIP3      H2            -12.6302062909       26.8245293933       34.4744458401  TIP3      1805            0.0000000000
     19216      1906  TIP3      OH2           -18.6492761803       28.7974618539       29.1635691371  TIP3      1806            0.0000000000
     19217      1906  TIP3      H1            -19.5235517081       28.5979913693       29.5150586507  TIP3      1806            0.0000000000
     19218      1906  TIP3      H2            -18.2220203717       27.9200764361       29.2151288663  TIP3      1806            0.0000000000
     19219      1907  TIP3      OH2           -14.2055808497       27.7357058742       28.9319526636  TIP3      1807            0.0000000000
     19220      1907  TIP3      H1            -13.4575777729       28.0241709466       28.3501733583  TIP3      1807            0.0000000000
     19221      1907  TIP3      H2            -14.7068795897       28.5765587908       28.9478248482  TIP3      1807            0.0000000000
     19222      1908  TIP3      OH2           -12.2648944230       28.5121507679       27.3353093998  TIP3      1808            0.0000000000
     19223      1908  TIP3      H1            -11.5637228382       27.9288037413       26.9770224016  TIP3      1808            0.0000000000
     19224      1908  TIP3      H2            -11.7568604489       29.2518580304       27.7070390238  TIP3      1808            0.0000000000
     19225      1909  TIP3      OH2           -26.6817191599       27.9449072249       27.0944022363  TIP3      1809            0.0000000000
     19226      1909  TIP3      H1            -27.5262236114       27.6486918616       26.7045048629  TIP3      1809            0.0000000000
     19227      1909  TIP3      H2            -26.1803665917       27.0964472842       27.0532565218  TIP3      1809            0.0000000000
     19228      1910  TIP3      OH2           -27.6475456079       27.9684969549       22.7111940629  TIP3      1810            0.0000000000
     19229      1910  TIP3      H1            -27.3553955743       28.2727578406       21.8353103125  TIP3      1810            0.0000000000
     19230      1910  TIP3      H2            -27.6354329869       28.7894054117       23.2275046604  TIP3      1810            0.0000000000
     19231      1911  TIP3      OH2           -22.6433255733       27.3633769860       26.8414049356  TIP3      1811            0.0000000000
     19232      1911  TIP3      H1            -22.3273390292       27.9870857302       26.1789785473  TIP3      1811            0.0000000000
     19233      1911  TIP3      H2            -22.3800553995       27.8408089633       27.6344693116  TIP3      1811            0.0000000000
     19234      1912  TIP3      OH2           -16.7061579691       27.6790792207       27.5644800189  TIP3      1812            0.0000000000
     19235      1912  TIP3      H1            -16.0252932890       27.2855873198       26.9906537006  TIP3      1812            0.0000000000
     19236      1912  TIP3      H2            -17.1988352181       26.8774092096       27.8252139619  TIP3      1812            0.0000000000
     19237      1913  TIP3      OH2           -15.5219636256       28.3894768800       24.1086500810  TIP3      1813            0.0000000000
     19238      1913  TIP3      H1            -16.0081988100       28.6048376660       24.9198348747  TIP3      1813            0.0000000000
     19239      1913  TIP3      H2            -15.6609304726       27.4091697562       24.0780266979  TIP3      1813            0.0000000000
     19240      1914  TIP3      OH2           -27.4685148033       28.3831407382       35.8101721698  TIP3      1814            0.0000000000
     19241      1914  TIP3      H1            -28.0633582626       27.6857246198       36.1629012575  TIP3      1814            0.0000000000
     19242      1914  TIP3      H2            -26.6729893924       28.2749807639       36.3504272891  TIP3      1814            0.0000000000
     19243      1915  TIP3      OH2           -25.3707585914       28.1705323169       38.3202843591  TIP3      1815            0.0000000000
     19244      1915  TIP3      H1            -24.5389677154       27.6706982784       38.2694960226  TIP3      1815            0.0000000000
     19245      1915  TIP3      H2            -25.9418744341       27.5739275207       38.8500556809  TIP3      1815            0.0000000000
     19246      1916  TIP3      OH2           -16.5784608070       27.2432837927       38.6782427763  TIP3      1816            0.0000000000
     19247      1916  TIP3      H1            -16.6376830104       26.6741647866       39.4767744220  TIP3      1816            0.0000000000
     19248      1916  TIP3      H2            -15.6536602958       27.0554275705       38.4072163146  TIP3      1816            0.0000000000
     19249      1917  TIP3      OH2             4.7715994907      -30.0278161650       32.7130811276  TIP3      1817            0.0000000000
     19250      1917  TIP3      H1              4.1182464200      -29.3109875327       32.6370232953  TIP3      1817            0.0000000000
     19251      1917  TIP3      H2              5.3735707416      -29.8043394658       31.9847235316  TIP3      1817            0.0000000000
     19252      1918  TIP3      OH2            -2.6760961604       27.8348659809       30.1171068791  TIP3      1818            0.0000000000
     19253      1918  TIP3      H1             -2.8082022080       26.9255119700       29.8002836622  TIP3      1818            0.0000000000
     19254      1918  TIP3      H2             -3.6088671895       28.1355936772       30.2511933608  TIP3      1818            0.0000000000
     19255      1919  TIP3      OH2             5.8090356775       27.2159408784       23.0764429433  TIP3      1819            0.0000000000
     19256      1919  TIP3      H1              5.3239319725       27.9825623678       23.4290919036  TIP3      1819            0.0000000000
     19257      1919  TIP3      H2              6.3766022292       27.6568676666       22.4181963704  TIP3      1819            0.0000000000
     19258      1920  TIP3      OH2            -5.1807991089       28.9170220554       30.6087955748  TIP3      1820            0.0000000000
     19259      1920  TIP3      H1             -6.1311121643       28.7448704567       30.4066149881  TIP3      1820            0.0000000000
     19260      1920  TIP3      H2             -5.0962977112       29.8600402429       30.3414621659  TIP3      1820            0.0000000000
     19261      1921  TIP3      OH2            -0.1920075552       28.1967014514       34.0934716085  TIP3      1821            0.0000000000
     19262      1921  TIP3      H1              0.2293052373       27.8133542705       34.8981323050  TIP3      1821            0.0000000000
     19263      1921  TIP3      H2             -1.1422334548       28.1022997023       34.3000316435  TIP3      1821            0.0000000000
     19264      1922  TIP3      OH2            -1.0809928536       28.9743873623       26.3738772152  TIP3      1822            0.0000000000
     19265      1922  TIP3      H1             -0.5364954971       28.8613460964       27.1794799271  TIP3      1822            0.0000000000
     19266      1922  TIP3      H2             -0.8998274949       29.9086531310       26.1486787428  TIP3      1822            0.0000000000
     19267      1923  TIP3      OH2            -7.7534317000       28.1679124788       29.8751238522  TIP3      1823            0.0000000000
     19268      1923  TIP3      H1             -7.7186002860       28.0948021536       28.8977821009  TIP3      1823            0.0000000000
     19269      1923  TIP3      H2             -8.0481904026       27.2530434968       30.1134228203  TIP3      1823            0.0000000000
     19270      1924  TIP3      OH2            -3.0164065629       27.8473664465       33.8838549727  TIP3      1824            0.0000000000
     19271      1924  TIP3      H1             -3.0546073121       28.8157788427       33.7237556010  TIP3      1824            0.0000000000
     19272      1924  TIP3      H2             -3.7857371271       27.5563823355       33.3773512385  TIP3      1824            0.0000000000
     19273      1925  TIP3      OH2            -2.8831693389       27.5284987583       36.5072221246  TIP3      1825            0.0000000000
     19274      1925  TIP3      H1             -2.3828497432       26.7204097494       36.7285344375  TIP3      1825            0.0000000000
     19275      1925  TIP3      H2             -3.0059136996       27.3795500025       35.5405012115  TIP3      1825            0.0000000000
     19276      1926  TIP3      OH2            -3.2799094576       28.5930050956       39.0329696659  TIP3      1826            0.0000000000
     19277      1926  TIP3      H1             -3.1467613809       28.1593016015       38.1675223411  TIP3      1826            0.0000000000
     19278      1926  TIP3      H2             -2.4951127219       29.1648812093       39.0610776168  TIP3      1826            0.0000000000
     19279      1927  TIP3      OH2             7.7595687390       27.3590233675       38.7846267563  TIP3      1827            0.0000000000
     19280      1927  TIP3      H1              8.2831771564       26.9420679072       38.0640262072  TIP3      1827            0.0000000000
     19281      1927  TIP3      H2              7.7940887938       28.2964783660       38.4886167729  TIP3      1827            0.0000000000
     19282      1928  TIP3      OH2           -10.4276283011       28.2898143032       33.0381895262  TIP3      1828            0.0000000000
     19283      1928  TIP3      H1            -11.0889300021       28.2107554915       33.7565588374  TIP3      1828            0.0000000000
     19284      1928  TIP3      H2            -10.4020819234       29.2610211845       32.8498673363  TIP3      1828            0.0000000000
     19285      1929  TIP3      OH2             6.2546984269       27.8198961380       34.6567236800  TIP3      1829            0.0000000000
     19286      1929  TIP3      H1              5.6952664498       28.1820467720       33.9367773434  TIP3      1829            0.0000000000
     19287      1929  TIP3      H2              6.4462682291       26.9196036911       34.2951022520  TIP3      1829            0.0000000000
     19288      1930  TIP3      OH2             0.0863611757       28.9700971444       28.9666705433  TIP3      1830            0.0000000000
     19289      1930  TIP3      H1             -0.6915698417       28.5936475308       29.3982500385  TIP3      1830            0.0000000000
     19290      1930  TIP3      H2              0.6763211789       28.2002633589       28.9320263971  TIP3      1830            0.0000000000
     19291      1931  TIP3      OH2             4.5568273148       27.6898938796       28.9062915870  TIP3      1831            0.0000000000
     19292      1931  TIP3      H1              5.3395489347       27.9485872432       28.3629926845  TIP3      1831            0.0000000000
     19293      1931  TIP3      H2              4.0383311306       28.5031688117       28.8376522742  TIP3      1831            0.0000000000
     19294      1932  TIP3      OH2             6.6046135193       28.5629535054       27.4495654655  TIP3      1832            0.0000000000
     19295      1932  TIP3      H1              7.3062826161       28.1408703627       26.9153033105  TIP3      1832            0.0000000000
     19296      1932  TIP3      H2              6.9816096531       29.4380310288       27.6504703634  TIP3      1832            0.0000000000
     19297      1933  TIP3      OH2            -7.9133879186       27.7245337935       27.1872311372  TIP3      1833            0.0000000000
     19298      1933  TIP3      H1             -8.7734861464       27.5094127411       26.7649045210  TIP3      1833            0.0000000000
     19299      1933  TIP3      H2             -7.4055968655       26.9030465912       26.9933192426  TIP3      1833            0.0000000000
     19300      1934  TIP3      OH2            -9.1699082320       28.1482401542       23.4108743934  TIP3      1834            0.0000000000
     19301      1934  TIP3      H1             -9.1986805175       29.1271675790       23.3159564232  TIP3      1834            0.0000000000
     19302      1934  TIP3      H2            -10.0867454332       27.9007954112       23.2098230561  TIP3      1834            0.0000000000
     19303      1935  TIP3      OH2            -3.7974887325       27.5949844571       26.9638379880  TIP3      1835            0.0000000000
     19304      1935  TIP3      H1             -3.4529323940       28.2392221191       26.3401852415  TIP3      1835            0.0000000000
     19305      1935  TIP3      H2             -3.4809860286       27.9590225306       27.7935969533  TIP3      1835            0.0000000000
     19306      1936  TIP3      OH2             2.1393955949       27.7833084789       27.6836829170  TIP3      1836            0.0000000000
     19307      1936  TIP3      H1              2.6603741239       27.2179820242       27.0828369632  TIP3      1836            0.0000000000
     19308      1936  TIP3      H2              1.7138983947       27.0746896939       28.2146648949  TIP3      1836            0.0000000000
     19309      1937  TIP3      OH2             3.2157817346       28.2862912770       23.8901131487  TIP3      1837            0.0000000000
     19310      1937  TIP3      H1              2.3510616357       28.2109693946       24.3140493450  TIP3      1837            0.0000000000
     19311      1937  TIP3      H2              3.4238046216       27.3290172975       23.9304521320  TIP3      1837            0.0000000000
     19312      1938  TIP3      OH2            -8.5516372304       28.6160739025       36.1155425276  TIP3      1838            0.0000000000
     19313      1938  TIP3      H1             -9.0363249116       27.7984842877       36.3695600298  TIP3      1838            0.0000000000
     19314      1938  TIP3      H2             -7.7354727655       28.5266037536       36.6435293014  TIP3      1838            0.0000000000
     19315      1939  TIP3      OH2            -6.4950219705       28.2194171526       38.0405352425  TIP3      1839            0.0000000000
     19316      1939  TIP3      H1             -5.5822145281       27.9018596190       38.1379456410  TIP3      1839            0.0000000000
     19317      1939  TIP3      H2             -6.9467651500       27.6133614021       38.6798103680  TIP3      1839            0.0000000000
     19318      1940  TIP3      OH2             2.1395307720       27.2972861525       38.4719333643  TIP3      1840            0.0000000000
     19319      1940  TIP3      H1              2.0268539437       26.7329226088       39.2544644900  TIP3      1840            0.0000000000
     19320      1940  TIP3      H2              3.1036024876       27.1961690114       38.2930683195  TIP3      1840            0.0000000000
     19321      1941  TIP3      OH2            23.9287056961      -29.7886256148       32.2380194112  TIP3      1841            0.0000000000
     19322      1941  TIP3      H1             23.2808726232      -29.0715389446       32.1725094124  TIP3      1841            0.0000000000
     19323      1941  TIP3      H2             24.6409446883      -29.4384902007       31.6739774052  TIP3      1841            0.0000000000
     19324      1942  TIP3      OH2            16.1693036342       27.7914608260       30.1306485322  TIP3      1842            0.0000000000
     19325      1942  TIP3      H1             16.0039400315       26.9011621199       29.7761485644  TIP3      1842            0.0000000000
     19326      1942  TIP3      H2             15.2374763754       28.1005005041       30.2761135937  TIP3      1842            0.0000000000
     19327      1943  TIP3      OH2            24.5285547116       27.4672951943       22.9766645111  TIP3      1843            0.0000000000
     19328      1943  TIP3      H1             23.5561461027       27.5802637005       23.0507711479  TIP3      1843            0.0000000000
     19329      1943  TIP3      H2             24.7730721543       28.4119880491       22.8674984458  TIP3      1843            0.0000000000
     19330      1944  TIP3      OH2            13.8845973141       29.0172336687       30.6207377164  TIP3      1844            0.0000000000
     19331      1944  TIP3      H1             12.9743494412       28.6971687327       30.3930527948  TIP3      1844            0.0000000000
     19332      1944  TIP3      H2             13.8243216127       29.9765861083       30.4368748741  TIP3      1844            0.0000000000
     19333      1945  TIP3      OH2            18.7826789649       28.1544743510       34.0069949252  TIP3      1845            0.0000000000
     19334      1945  TIP3      H1             19.2880828098       27.6549738474       34.6881303012  TIP3      1845            0.0000000000
     19335      1945  TIP3      H2             17.8639152106       28.0402344612       34.3171498595  TIP3      1845            0.0000000000
     19336      1946  TIP3      OH2            17.6136676249       29.0230895247       26.2468511259  TIP3      1846            0.0000000000
     19337      1946  TIP3      H1             17.5885356419       29.4827103155       27.0978833017  TIP3      1846            0.0000000000
     19338      1946  TIP3      H2             18.0771823261       29.7073018246       25.7176640053  TIP3      1846            0.0000000000
     19339      1947  TIP3      OH2            11.4403998303       28.1572522501       29.9469910125  TIP3      1847            0.0000000000
     19340      1947  TIP3      H1             11.3364552716       28.1116485162       28.9723614641  TIP3      1847            0.0000000000
     19341      1947  TIP3      H2             11.0753595348       27.2757988981       30.2037551776  TIP3      1847            0.0000000000
     19342      1948  TIP3      OH2            15.9893699790       27.8738260386       33.8536086104  TIP3      1848            0.0000000000
     19343      1948  TIP3      H1             15.8829684089       28.8270734234       33.6335331086  TIP3      1848            0.0000000000
     19344      1948  TIP3      H2             15.2188950136       27.4927632464       33.4176218622  TIP3      1848            0.0000000000
     19345      1949  TIP3      OH2            15.9248847438       27.4571323940       36.4755524099  TIP3      1849            0.0000000000
     19346      1949  TIP3      H1             16.4961633981       26.7024958796       36.6893893190  TIP3      1849            0.0000000000
     19347      1949  TIP3      H2             15.7787775093       27.3096043938       35.5148968145  TIP3      1849            0.0000000000
     19348      1950  TIP3      OH2            15.4041636088       28.4217911368       38.9553496204  TIP3      1850            0.0000000000
     19349      1950  TIP3      H1             15.7642305130       27.9800318405       38.1598535321  TIP3      1850            0.0000000000
     19350      1950  TIP3      H2             16.1163524197       29.0522342436       39.1376583035  TIP3      1850            0.0000000000
     19351      1951  TIP3      OH2            26.5769814353       27.3594749977       38.8227029344  TIP3      1851            0.0000000000
     19352      1951  TIP3      H1             27.1185400400       26.9837349303       38.0908586759  TIP3      1851            0.0000000000
     19353      1951  TIP3      H2             26.5600822611       28.2988583445       38.5511986117  TIP3      1851            0.0000000000
     19354      1952  TIP3      OH2             8.5693224125       28.2469757860       32.9260307383  TIP3      1852            0.0000000000
     19355      1952  TIP3      H1              7.9727880660       28.3289352776       33.6925580759  TIP3      1852            0.0000000000
     19356      1952  TIP3      H2              8.6046335168       29.1822147316       32.6013514417  TIP3      1852            0.0000000000
     19357      1953  TIP3      OH2            24.8689031165       27.7324071703       34.7452215181  TIP3      1853            0.0000000000
     19358      1953  TIP3      H1             24.3078167015       27.8998569056       33.9674774235  TIP3      1853            0.0000000000
     19359      1953  TIP3      H2             25.2044432538       26.8240769600       34.5530534905  TIP3      1853            0.0000000000
     19360      1954  TIP3      OH2            19.0356195344       29.0239177641       28.7592985498  TIP3      1854            0.0000000000
     19361      1954  TIP3      H1             18.4244373324       28.4348922248       29.2270107619  TIP3      1854            0.0000000000
     19362      1954  TIP3      H2             19.1807144977       28.5642294186       27.9186907487  TIP3      1854            0.0000000000
     19363      1955  TIP3      OH2            23.3869580431       27.5920086947       29.1727911840  TIP3      1855            0.0000000000
     19364      1955  TIP3      H1             24.0554799313       28.0358557307       28.5860085368  TIP3      1855            0.0000000000
     19365      1955  TIP3      H2             22.5516512556       27.9143065949       28.7673666780  TIP3      1855            0.0000000000
     19366      1956  TIP3      OH2            25.2692380695       28.3322067182       27.5486134404  TIP3      1856            0.0000000000
     19367      1956  TIP3      H1             25.9085884000       27.7675341257       27.0641856392  TIP3      1856            0.0000000000
     19368      1956  TIP3      H2             25.8315678091       29.0387217893       27.9008982786  TIP3      1856            0.0000000000
     19369      1957  TIP3      OH2            11.0228326138       27.9155885666       27.1815071673  TIP3      1857            0.0000000000
     19370      1957  TIP3      H1             10.2013390936       27.7253698485       26.6885171380  TIP3      1857            0.0000000000
     19371      1957  TIP3      H2             11.5391522476       27.0975868685       26.9922795999  TIP3      1857            0.0000000000
     19372      1958  TIP3      OH2            15.2735817473       27.5633068613       26.9801227873  TIP3      1858            0.0000000000
     19373      1958  TIP3      H1             15.8913097108       28.1266545349       26.4810932957  TIP3      1858            0.0000000000
     19374      1958  TIP3      H2             15.3031990318       27.9909650124       27.8377273096  TIP3      1858            0.0000000000
     19375      1959  TIP3      OH2            21.1640498211       27.7040686242       27.7261898295  TIP3      1859            0.0000000000
     19376      1959  TIP3      H1             21.2598501361       27.1941760129       26.8958522642  TIP3      1859            0.0000000000
     19377      1959  TIP3      H2             20.5233582888       27.1363358932       28.2078203819  TIP3      1859            0.0000000000
     19378      1960  TIP3      OH2            21.8491681632       28.0025991429       23.5069658375  TIP3      1860            0.0000000000
     19379      1960  TIP3      H1             21.4159117994       27.5418346758       22.7499216554  TIP3      1860            0.0000000000
     19380      1960  TIP3      H2             21.5398768921       27.4302426691       24.2464188823  TIP3      1860            0.0000000000
     19381      1961  TIP3      OH2            10.4635867239       28.6570840295       36.1455867881  TIP3      1861            0.0000000000
     19382      1961  TIP3      H1             10.0523370456       27.8395168663       36.4787399012  TIP3      1861            0.0000000000
     19383      1961  TIP3      H2             11.3084226055       28.6190630273       36.6351295481  TIP3      1861            0.0000000000
     19384      1962  TIP3      OH2            12.4709228536       28.3257896625       38.1693896637  TIP3      1862            0.0000000000
     19385      1962  TIP3      H1             13.4043075886       28.0674243586       38.2828495509  TIP3      1862            0.0000000000
     19386      1962  TIP3      H2             12.0436507815       27.6619370395       38.7607929404  TIP3      1862            0.0000000000
     19387      1963  TIP3      OH2            21.2819797863       27.2709820115       38.5934448916  TIP3      1863            0.0000000000
     19388      1963  TIP3      H1             21.3214326687       26.8903983062       39.4969139135  TIP3      1863            0.0000000000
     19389      1963  TIP3      H2             22.1301236618       26.9425594192       38.2338404386  TIP3      1863            0.0000000000
     19390      1964  TIP3      OH2            27.0701996668       28.3079625840       33.0256958689  TIP3      1864            0.0000000000
     19391      1964  TIP3      H1             26.5158641286       28.0229793365       33.7776447061  TIP3      1864            0.0000000000
     19392      1964  TIP3      H2             26.8404569465       29.2611258083       32.9667806541  TIP3      1864            0.0000000000
     19393      1965  TIP3      OH2            28.4111988709       27.7313078900       22.8666337727  TIP3      1865            0.0000000000
     19394      1965  TIP3      H1             29.2831222239       27.6257248983       22.4516187986  TIP3      1865            0.0000000000
     19395      1965  TIP3      H2             28.4859979160       28.6165972980       23.2314489987  TIP3      1865            0.0000000000
     19396      1966  TIP3      OH2           -19.1636367408      -21.0029662876       40.1878899335  TIP3      1866            0.0000000000
     19397      1966  TIP3      H1            -18.5372312830      -20.4058628888       40.6085890996  TIP3      1866            0.0000000000
     19398      1966  TIP3      H2            -18.5448564059      -21.6974350929       39.8690619733  TIP3      1866            0.0000000000
     19399      1967  TIP3      OH2           -11.4741013744      -14.4357803067       39.9267367113  TIP3      1867            0.0000000000
     19400      1967  TIP3      H1            -11.2506387549      -13.8281374587       40.6485002264  TIP3      1867            0.0000000000
     19401      1967  TIP3      H2            -10.8018867405      -15.1307376561       40.1048130347  TIP3      1867            0.0000000000
     19402      1968  TIP3      OH2           -16.1090702187      -11.9932093295       40.7336266353  TIP3      1868            0.0000000000
     19403      1968  TIP3      H1            -15.6883869080      -12.5342603720       40.0280962054  TIP3      1868            0.0000000000
     19404      1968  TIP3      H2            -15.8358640313      -12.5070797492       41.5137811358  TIP3      1868            0.0000000000
     19405      1969  TIP3      OH2           -14.6621113264      -19.6100618232       39.9824715328  TIP3      1869            0.0000000000
     19406      1969  TIP3      H1            -14.9887193325      -19.8339036365       39.0976012411  TIP3      1869            0.0000000000
     19407      1969  TIP3      H2            -13.8022097395      -19.2035912831       39.7783526876  TIP3      1869            0.0000000000
     19408      1970  TIP3      OH2           -19.7106131311      -25.7934012892       40.3677281074  TIP3      1870            0.0000000000
     19409      1970  TIP3      H1            -20.4009021969      -25.5828820472       41.0114862323  TIP3      1870            0.0000000000
     19410      1970  TIP3      H2            -20.1850331301      -26.3817827981       39.7509889677  TIP3      1870            0.0000000000
     19411      1971  TIP3      OH2           -22.9579572074      -25.4758842077       38.9194508101  TIP3      1871            0.0000000000
     19412      1971  TIP3      H1            -23.3396704811      -25.7555953449       39.7812203814  TIP3      1871            0.0000000000
     19413      1971  TIP3      H2            -23.6340168008      -24.8392748526       38.6248634226  TIP3      1871            0.0000000000
     19414      1972  TIP3      OH2           -24.2793609765      -22.9136148750       40.6993343008  TIP3      1872            0.0000000000
     19415      1972  TIP3      H1            -24.5145980638      -23.2021039201       39.7897636964  TIP3      1872            0.0000000000
     19416      1972  TIP3      H2            -23.5253940345      -22.3492416297       40.4869213329  TIP3      1872            0.0000000000
     19417      1973  TIP3      OH2           -17.0856466047      -25.0474621995       40.7568786722  TIP3      1873            0.0000000000
     19418      1973  TIP3      H1            -18.0546822424      -25.2366988360       40.7957308692  TIP3      1873            0.0000000000
     19419      1973  TIP3      H2            -16.8020371069      -25.2283646099       41.6796654087  TIP3      1873            0.0000000000
     19420      1974  TIP3      OH2           -27.0475225208      -19.5398616407       40.1629072700  TIP3      1874            0.0000000000
     19421      1974  TIP3      H1            -26.8206469156      -19.5618886293       41.0983553389  TIP3      1874            0.0000000000
     19422      1974  TIP3      H2            -28.0010241252      -19.7763669315       40.1791263578  TIP3      1874            0.0000000000
     19423      1975  TIP3      OH2           -14.8788566112      -16.1532711446       40.6282127511  TIP3      1875            0.0000000000
     19424      1975  TIP3      H1            -14.8541013982      -15.7523414533       41.5158931927  TIP3      1875            0.0000000000
     19425      1975  TIP3      H2            -15.8158659817      -16.3873489159       40.5094505473  TIP3      1875            0.0000000000
     19426      1976  TIP3      OH2           -11.0928604387      -11.7915297792       41.2380185224  TIP3      1876            0.0000000000
     19427      1976  TIP3      H1            -10.6463619563      -11.4032453011       40.4717019466  TIP3      1876            0.0000000000
     19428      1976  TIP3      H2            -12.0254798506      -11.6814500307       41.0038189990  TIP3      1876            0.0000000000
     19429      1977  TIP3      OH2           -21.2994930518      -15.0143619950       38.6722760621  TIP3      1877            0.0000000000
     19430      1977  TIP3      H1            -21.7240385299      -15.4576558456       37.9231183022  TIP3      1877            0.0000000000
     19431      1977  TIP3      H2            -21.8353282491      -15.3249167090       39.4206649845  TIP3      1877            0.0000000000
     19432      1978  TIP3      OH2           -22.9611230684      -15.2573622924       41.1503470573  TIP3      1878            0.0000000000
     19433      1978  TIP3      H1            -23.4740639634      -16.0472208562       41.4410164338  TIP3      1878            0.0000000000
     19434      1978  TIP3      H2            -23.3289898838      -14.5638199853       41.7284810415  TIP3      1878            0.0000000000
     19435      1979  TIP3      OH2           -25.9714178824      -15.4604317166       40.5805459124  TIP3      1879            0.0000000000
     19436      1979  TIP3      H1            -25.6235626363      -15.0218650655       41.3652746401  TIP3      1879            0.0000000000
     19437      1979  TIP3      H2            -25.3184884116      -16.1543141507       40.4046982928  TIP3      1879            0.0000000000
     19438      1980  TIP3      OH2           -27.4913147951      -22.6409077751       39.0777720247  TIP3      1880            0.0000000000
     19439      1980  TIP3      H1            -26.7313845066      -22.5813399064       39.6812997259  TIP3      1880            0.0000000000
     19440      1980  TIP3      H2            -27.8024895509      -23.5496439112       39.2543222758  TIP3      1880            0.0000000000
     19441      1981  TIP3      OH2           -19.3887868251      -13.1705319293       39.0470683987  TIP3      1881            0.0000000000
     19442      1981  TIP3      H1            -19.9710814523      -13.9556146468       38.9276798336  TIP3      1881            0.0000000000
     19443      1981  TIP3      H2            -18.6146889029      -13.4579476700       38.5221560466  TIP3      1881            0.0000000000
     19444      1982  TIP3      OH2           -14.8007256759      -13.6605808720       38.9251177647  TIP3      1882            0.0000000000
     19445      1982  TIP3      H1            -14.3763289528      -14.0888930703       39.6887854268  TIP3      1882            0.0000000000
     19446      1982  TIP3      H2            -14.0880471070      -13.6777099000       38.2495037470  TIP3      1882            0.0000000000
     19447      1983  TIP3      OH2           -24.0881997071      -18.0361536190       38.4640422729  TIP3      1883            0.0000000000
     19448      1983  TIP3      H1            -23.6875780119      -18.5292497675       39.1905006126  TIP3      1883            0.0000000000
     19449      1983  TIP3      H2            -23.3551087652      -18.0210225540       37.8078613191  TIP3      1883            0.0000000000
     19450      1984  TIP3      OH2           -18.3184932172      -16.3972905181       38.7540346656  TIP3      1884            0.0000000000
     19451      1984  TIP3      H1            -18.0441618574      -16.5469691193       39.6774662968  TIP3      1884            0.0000000000
     19452      1984  TIP3      H2            -18.4407066619      -17.3385710885       38.4936595190  TIP3      1884            0.0000000000
     19453      1985  TIP3      OH2           -23.0217930765      -19.2310291913       41.2397436301  TIP3      1885            0.0000000000
     19454      1985  TIP3      H1            -23.7678450085      -19.7763116522       41.5183187074  TIP3      1885            0.0000000000
     19455      1985  TIP3      H2            -22.4900810588      -19.8804798778       40.7289729881  TIP3      1885            0.0000000000
     19456      1986  TIP3      OH2           -21.9027964481      -21.0954572346       39.6401597986  TIP3      1886            0.0000000000
     19457      1986  TIP3      H1            -22.3216620288      -21.3358646333       38.7972215062  TIP3      1886            0.0000000000
     19458      1986  TIP3      H2            -20.9447959207      -21.1348568255       39.4353223460  TIP3      1886            0.0000000000
     19459      1987  TIP3      OH2           -12.1531501978      -18.8405688846       38.9699504934  TIP3      1887            0.0000000000
     19460      1987  TIP3      H1            -12.4570727779      -19.1710828779       38.1050410522  TIP3      1887            0.0000000000
     19461      1987  TIP3      H2            -12.0705784282      -17.8763473528       38.7554369302  TIP3      1887            0.0000000000
     19462      1988  TIP3      OH2           -21.9216806520      -11.0574817279       41.0585196276  TIP3      1888            0.0000000000
     19463      1988  TIP3      H1            -21.0032210968      -10.9672422965       40.7299809967  TIP3      1888            0.0000000000
     19464      1988  TIP3      H2            -22.3775979513      -10.5289575772       40.3815902615  TIP3      1888            0.0000000000
     19465      1989  TIP3      OH2           -28.4029469198      -16.2237260093       40.1211193806  TIP3      1889            0.0000000000
     19466      1989  TIP3      H1            -27.4616414887      -15.9429895648       40.1753386164  TIP3      1889            0.0000000000
     19467      1989  TIP3      H2            -28.3451851246      -16.9849545179       39.5041433161  TIP3      1889            0.0000000000
     19468      1990  TIP3      OH2           -10.7545997344      -20.3994558779       40.8692261274  TIP3      1890            0.0000000000
     19469      1990  TIP3      H1            -11.0538419825      -19.9982627711       40.0279465004  TIP3      1890            0.0000000000
     19470      1990  TIP3      H2            -11.1509546283      -19.7637119464       41.5057553626  TIP3      1890            0.0000000000
     19471      1991  TIP3      OH2           -12.9322165368      -23.5255655842       39.2239777100  TIP3      1891            0.0000000000
     19472      1991  TIP3      H1            -12.6162859637      -22.7010888052       38.8201316652  TIP3      1891            0.0000000000
     19473      1991  TIP3      H2            -13.2129714729      -24.0336554720       38.4405749006  TIP3      1891            0.0000000000
     19474      1992  TIP3      OH2           -13.6835541698      -26.2859553954       38.9699855451  TIP3      1892            0.0000000000
     19475      1992  TIP3      H1            -13.4537595769      -25.7944389385       39.7841301006  TIP3      1892            0.0000000000
     19476      1992  TIP3      H2            -14.6284979245      -26.0553402264       38.8817123963  TIP3      1892            0.0000000000
     19477      1993  TIP3      OH2           -11.3762821493      -27.6726654254       40.7536146255  TIP3      1893            0.0000000000
     19478      1993  TIP3      H1            -11.6599404760      -27.9697876667       39.8804981528  TIP3      1893            0.0000000000
     19479      1993  TIP3      H2            -10.6412088395      -27.0785360693       40.5396317781  TIP3      1893            0.0000000000
     19480      1994  TIP3      OH2           -26.8120738835      -26.2557683379       39.7600710988  TIP3      1894            0.0000000000
     19481      1994  TIP3      H1            -26.1841689571      -26.9363142232       39.4557117405  TIP3      1894            0.0000000000
     19482      1994  TIP3      H2            -26.8017229642      -26.3625451320       40.7284122032  TIP3      1894            0.0000000000
     19483      1995  TIP3      OH2           -19.2899307737      -10.7231882971       40.0573648122  TIP3      1895            0.0000000000
     19484      1995  TIP3      H1            -18.4174975321      -10.8613131679       40.4398237548  TIP3      1895            0.0000000000
     19485      1995  TIP3      H2            -19.4216801901      -11.5962375948       39.6250059729  TIP3      1895            0.0000000000
     19486      1996  TIP3      OH2           -26.4883707140      -11.7694398368       39.9338677099  TIP3      1896            0.0000000000
     19487      1996  TIP3      H1            -26.6209849828      -11.7335127241       40.9012387510  TIP3      1896            0.0000000000
     19488      1996  TIP3      H2            -25.5887865470      -12.1411949371       39.9119783493  TIP3      1896            0.0000000000
     19489      1997  TIP3      OH2            -0.5682730057      -21.0290368180       40.1340498392  TIP3      1897            0.0000000000
     19490      1997  TIP3      H1             -0.0115421701      -20.4374474582       40.6591451312  TIP3      1897            0.0000000000
     19491      1997  TIP3      H2              0.1268366756      -21.5644409748       39.6985204479  TIP3      1897            0.0000000000
     19492      1998  TIP3      OH2             7.7052462838      -14.4029001267       39.6181363575  TIP3      1898            0.0000000000
     19493      1998  TIP3      H1              7.7712442017      -13.8029567284       40.3760036255  TIP3      1898            0.0000000000
     19494      1998  TIP3      H2              8.3009411648      -15.1277192946       39.9250887509  TIP3      1898            0.0000000000
     19495      1999  TIP3      OH2             2.7508512761      -11.9686230461       40.7777412839  TIP3      1899            0.0000000000
     19496      1999  TIP3      H1              3.1546424178      -12.4669421113       40.0368851479  TIP3      1899            0.0000000000
     19497      1999  TIP3      H2              3.0722214536      -12.5312195357       41.5103154369  TIP3      1899            0.0000000000
     19498      2000  TIP3      OH2             4.1421172383      -19.4391075854       39.9888135774  TIP3      1900            0.0000000000
     19499      2000  TIP3      H1              3.7510303233      -19.7413171382       39.1537884474  TIP3      1900            0.0000000000
     19500      2000  TIP3      H2              5.0162616963      -19.1324571872       39.6861306394  TIP3      1900            0.0000000000
     19501      2001  TIP3      OH2            -0.7908323365      -25.1450286926       40.3682289802  TIP3      1901            0.0000000000
     19502      2001  TIP3      H1             -1.4872371641      -25.0286794641       41.0321443914  TIP3      1901            0.0000000000
     19503      2001  TIP3      H2             -1.1852051859      -25.7956633057       39.7474673826  TIP3      1901            0.0000000000
     19504      2002  TIP3      OH2            -4.0526626144      -25.3277564118       39.2944242592  TIP3      1902            0.0000000000
     19505      2002  TIP3      H1             -4.2843061472      -25.4846814646       40.2399809053  TIP3      1902            0.0000000000
     19506      2002  TIP3      H2             -4.8025472872      -24.7633802646       39.0086434643  TIP3      1902            0.0000000000
     19507      2003  TIP3      OH2            -5.3150400689      -22.9217962201       40.8309654638  TIP3      1903            0.0000000000
     19508      2003  TIP3      H1             -5.6730864038      -23.1045858112       39.9354346779  TIP3      1903            0.0000000000
     19509      2003  TIP3      H2             -4.5663471812      -22.3559481035       40.5447274470  TIP3      1903            0.0000000000
     19510      2004  TIP3      OH2             1.8877341825      -24.8145187207       40.4501168388  TIP3      1904            0.0000000000
     19511      2004  TIP3      H1              0.9129534315      -24.9354110173       40.4802241338  TIP3      1904            0.0000000000
     19512      2004  TIP3      H2              2.1142589735      -25.0862042083       41.3551629579  TIP3      1904            0.0000000000
     19513      2005  TIP3      OH2            -8.2232853195      -20.1020145024       40.2799466594  TIP3      1905            0.0000000000
     19514      2005  TIP3      H1             -7.7135925779      -19.7962627801       41.0476186794  TIP3      1905            0.0000000000
     19515      2005  TIP3      H2             -9.1378329747      -20.1708594514       40.6441860901  TIP3      1905            0.0000000000
     19516      2006  TIP3      OH2             4.0004980329      -15.9833870458       40.5066857050  TIP3      1906            0.0000000000
     19517      2006  TIP3      H1              4.0424901815      -15.7093905605       41.4372354957  TIP3      1906            0.0000000000
     19518      2006  TIP3      H2              3.1325648202      -16.4224223195       40.4490977108  TIP3      1906            0.0000000000
     19519      2007  TIP3      OH2             7.8252831966      -11.6999607832       41.2339294204  TIP3      1907            0.0000000000
     19520      2007  TIP3      H1              8.2448004004      -11.1754191541       40.5395713415  TIP3      1907            0.0000000000
     19521      2007  TIP3      H2              6.9101929957      -11.3753807281       41.2102445591  TIP3      1907            0.0000000000
     19522      2008  TIP3      OH2            -2.5582907037      -14.9451999380       38.7441959299  TIP3      1908            0.0000000000
     19523      2008  TIP3      H1             -3.0004703006      -15.2926953588       37.9560575299  TIP3      1908            0.0000000000
     19524      2008  TIP3      H2             -3.1246948464      -15.3377051520       39.4394781522  TIP3      1908            0.0000000000
     19525      2009  TIP3      OH2            -4.2979812683      -15.4755677998       41.0051222646  TIP3      1909            0.0000000000
     19526      2009  TIP3      H1             -4.7714062733      -16.2214403495       41.4364999886  TIP3      1909            0.0000000000
     19527      2009  TIP3      H2             -4.6579897823      -14.7232535103       41.5138743679  TIP3      1909            0.0000000000
     19528      2010  TIP3      OH2            -6.9761143550      -15.9191819975       40.0586751823  TIP3      1910            0.0000000000
     19529      2010  TIP3      H1             -6.5456858708      -15.5255887656       40.8342542317  TIP3      1910            0.0000000000
     19530      2010  TIP3      H2             -6.2435078834      -16.4426487821       39.6751621122  TIP3      1910            0.0000000000
     19531      2011  TIP3      OH2            -9.0160659409      -22.8853011903       39.7457084623  TIP3      1911            0.0000000000
     19532      2011  TIP3      H1             -8.4561066397      -22.1706248984       40.0969566128  TIP3      1911            0.0000000000
     19533      2011  TIP3      H2             -9.9124622890      -22.5872954862       39.9811774132  TIP3      1911            0.0000000000
     19534      2012  TIP3      OH2            -0.4266790845      -13.1635362207       39.0534712761  TIP3      1912            0.0000000000
     19535      2012  TIP3      H1             -1.0318909369      -13.9348850433       39.0434041593  TIP3      1912            0.0000000000
     19536      2012  TIP3      H2              0.3438051799      -13.5038089411       38.5568370046  TIP3      1912            0.0000000000
     19537      2013  TIP3      OH2             4.1664121064      -13.5284940484       38.9399080212  TIP3      1913            0.0000000000
     19538      2013  TIP3      H1              4.5516210099      -14.0664619888       39.6643394253  TIP3      1913            0.0000000000
     19539      2013  TIP3      H2              4.8659255797      -13.5626037179       38.2506691739  TIP3      1913            0.0000000000
     19540      2014  TIP3      OH2            -5.0621583158      -17.5891991709       38.4986362387  TIP3      1914            0.0000000000
     19541      2014  TIP3      H1             -4.9164768062      -18.2583369080       39.1889817727  TIP3      1914            0.0000000000
     19542      2014  TIP3      H2             -4.4350254743      -17.9006525109       37.8138117177  TIP3      1914            0.0000000000
     19543      2015  TIP3      OH2             0.7962559874      -16.2897992555       38.5857086244  TIP3      1915            0.0000000000
     19544      2015  TIP3      H1              0.9448572643      -16.2580109753       39.5420452330  TIP3      1915            0.0000000000
     19545      2015  TIP3      H2              0.5074694248      -17.2238113152       38.5181018175  TIP3      1915            0.0000000000
     19546      2016  TIP3      OH2            -4.3438013020      -19.3282334763       41.2041772471  TIP3      1916            0.0000000000
     19547      2016  TIP3      H1             -4.5816190933      -20.0593632360       41.7938189279  TIP3      1916            0.0000000000
     19548      2016  TIP3      H2             -3.6218081118      -19.7220353293       40.6811332446  TIP3      1916            0.0000000000
     19549      2017  TIP3      OH2            -3.3118982040      -21.4233231806       39.6505914240  TIP3      1917            0.0000000000
     19550      2017  TIP3      H1             -3.6808601682      -21.5159548105       38.7512139677  TIP3      1917            0.0000000000
     19551      2017  TIP3      H2             -2.3480098775      -21.3804259887       39.4844528119  TIP3      1917            0.0000000000
     19552      2018  TIP3      OH2             6.7020175418      -18.7884021216       38.8870191288  TIP3      1918            0.0000000000
     19553      2018  TIP3      H1              6.4337674166      -19.0883401566       37.9934847260  TIP3      1918            0.0000000000
     19554      2018  TIP3      H2              6.7041416727      -17.8042776154       38.7395841911  TIP3      1918            0.0000000000
     19555      2019  TIP3      OH2            -3.1762980014      -10.9843769966       41.1335326892  TIP3      1919            0.0000000000
     19556      2019  TIP3      H1             -2.2900582727      -10.9483001156       40.7046518958  TIP3      1919            0.0000000000
     19557      2019  TIP3      H2             -3.6128227353      -10.2994248514       40.5975136013  TIP3      1919            0.0000000000
     19558      2020  TIP3      OH2            -9.5986797603      -16.3975642681       40.1411663039  TIP3      1920            0.0000000000
     19559      2020  TIP3      H1             -8.6262051709      -16.2125247862       40.1011256068  TIP3      1920            0.0000000000
     19560      2020  TIP3      H2             -9.6754277891      -17.0195385703       39.3855524501  TIP3      1920            0.0000000000
     19561      2021  TIP3      OH2             8.1180103651      -20.2628282393       40.9234114290  TIP3      1921            0.0000000000
     19562      2021  TIP3      H1              7.7669996043      -19.9603856105       40.0592052023  TIP3      1921            0.0000000000
     19563      2021  TIP3      H2              7.7561331197      -19.5701322646       41.5183808875  TIP3      1921            0.0000000000
     19564      2022  TIP3      OH2             5.9800869072      -23.4242046054       39.1773702223  TIP3      1922            0.0000000000
     19565      2022  TIP3      H1              6.2086070155      -22.6418087203       38.6402198698  TIP3      1922            0.0000000000
     19566      2022  TIP3      H2              5.5987177819      -23.9909877904       38.4894076626  TIP3      1922            0.0000000000
     19567      2023  TIP3      OH2             5.0561875395      -26.1534925723       38.9734000804  TIP3      1923            0.0000000000
     19568      2023  TIP3      H1              5.5368229225      -25.8668658193       39.7726793505  TIP3      1923            0.0000000000
     19569      2023  TIP3      H2              4.1815004260      -25.7740017314       39.1325496570  TIP3      1923            0.0000000000
     19570      2024  TIP3      OH2             7.4668896681      -27.2478160339       40.6184686753  TIP3      1924            0.0000000000
     19571      2024  TIP3      H1              7.2593585574      -27.7148061191       39.7978328389  TIP3      1924            0.0000000000
     19572      2024  TIP3      H2              8.4263453610      -27.1195630975       40.5545969301  TIP3      1924            0.0000000000
     19573      2025  TIP3      OH2            -7.9175576719      -26.5847666084       39.9261758402  TIP3      1925            0.0000000000
     19574      2025  TIP3      H1             -7.2680548315      -27.2387348170       39.6229113479  TIP3      1925            0.0000000000
     19575      2025  TIP3      H2             -7.6647541478      -26.4149754202       40.8391683345  TIP3      1925            0.0000000000
     19576      2026  TIP3      OH2            -0.7019231730      -10.7908177414       40.1443874507  TIP3      1926            0.0000000000
     19577      2026  TIP3      H1              0.1509792049      -10.6598370855       40.5621993061  TIP3      1926            0.0000000000
     19578      2026  TIP3      H2             -0.5781234889      -11.7089559139       39.8084325174  TIP3      1926            0.0000000000
     19579      2027  TIP3      OH2            -6.9859662569      -11.9185465106       39.5332260081  TIP3      1927            0.0000000000
     19580      2027  TIP3      H1             -6.9401529012      -11.9485644937       40.4954904517  TIP3      1927            0.0000000000
     19581      2027  TIP3      H2             -6.1301472972      -12.3711079142       39.2855688415  TIP3      1927            0.0000000000
     19582      2028  TIP3      OH2            18.4430206357      -21.1143893296       40.1414618043  TIP3      1928            0.0000000000
     19583      2028  TIP3      H1             19.0581810393      -20.4772864665       40.5391803091  TIP3      1928            0.0000000000
     19584      2028  TIP3      H2             19.0672130719      -21.8027246985       39.8125233682  TIP3      1928            0.0000000000
     19585      2029  TIP3      OH2            26.2911668958      -14.3684871677       39.8912942348  TIP3      1929            0.0000000000
     19586      2029  TIP3      H1             26.3758169594      -13.8602361785       40.7151075115  TIP3      1929            0.0000000000
     19587      2029  TIP3      H2             26.9628773846      -15.0721370120       40.0597453530  TIP3      1929            0.0000000000
     19588      2030  TIP3      OH2            21.4773091668      -12.0603097283       40.8203893356  TIP3      1930            0.0000000000
     19589      2030  TIP3      H1             22.0609768851      -12.4206116387       40.1162974362  TIP3      1930            0.0000000000
     19590      2030  TIP3      H2             21.7509109188      -12.6303585956       41.5539252033  TIP3      1930            0.0000000000
     19591      2031  TIP3      OH2            22.9096941465      -19.4427709861       39.9754124880  TIP3      1931            0.0000000000
     19592      2031  TIP3      H1             22.5551077836      -19.7982268632       39.1420448558  TIP3      1931            0.0000000000
     19593      2031  TIP3      H2             23.8226668513      -19.2444371580       39.6874198648  TIP3      1931            0.0000000000
     19594      2032  TIP3      OH2            17.9894403769      -25.1989156483       40.3677302778  TIP3      1932            0.0000000000
     19595      2032  TIP3      H1             17.4665322214      -24.8744012022       41.1110407309  TIP3      1932            0.0000000000
     19596      2032  TIP3      H2             17.4118941437      -25.8839574696       39.9867623091  TIP3      1932            0.0000000000
     19597      2033  TIP3      OH2            14.5908381449      -25.2203957194       39.4036475962  TIP3      1933            0.0000000000
     19598      2033  TIP3      H1             14.5144013616      -25.3045359896       40.3816754342  TIP3      1933            0.0000000000
     19599      2033  TIP3      H2             13.8923049728      -24.5696648598       39.1836703978  TIP3      1933            0.0000000000
     19600      2034  TIP3      OH2            13.5277722730      -22.8372386972       40.7651644439  TIP3      1934            0.0000000000
     19601      2034  TIP3      H1             13.0471153155      -22.9353345556       39.9200699913  TIP3      1934            0.0000000000
     19602      2034  TIP3      H2             14.3561204009      -22.4370838045       40.4222774769  TIP3      1934            0.0000000000
     19603      2035  TIP3      OH2            20.6726298713      -25.0247100848       40.8508807146  TIP3      1935            0.0000000000
     19604      2035  TIP3      H1             19.6996323150      -24.9715807113       40.7168308326  TIP3      1935            0.0000000000
     19605      2035  TIP3      H2             20.7090781174      -25.3517214786       41.7692763224  TIP3      1935            0.0000000000
     19606      2036  TIP3      OH2            10.7059148857      -20.0743309696       40.1395334029  TIP3      1936            0.0000000000
     19607      2036  TIP3      H1             11.1898900416      -19.5782636655       40.8155930722  TIP3      1936            0.0000000000
     19608      2036  TIP3      H2              9.8037458334      -20.1131949788       40.5372912423  TIP3      1936            0.0000000000
     19609      2037  TIP3      OH2            22.7410562400      -16.0733047546       40.4280825411  TIP3      1937            0.0000000000
     19610      2037  TIP3      H1             22.5482832264      -15.7038532390       41.2993667891  TIP3      1937            0.0000000000
     19611      2037  TIP3      H2             21.9531447223      -16.6202722203       40.2835384717  TIP3      1937            0.0000000000
     19612      2038  TIP3      OH2            26.7137230151      -11.7037913966       41.3515809024  TIP3      1938            0.0000000000
     19613      2038  TIP3      H1             27.3048091024      -11.4498245044       40.6286331387  TIP3      1938            0.0000000000
     19614      2038  TIP3      H2             25.8461233094      -11.5496008148       40.9566001885  TIP3      1938            0.0000000000
     19615      2039  TIP3      OH2            16.3072039823      -14.9879408056       38.7946679069  TIP3      1939            0.0000000000
     19616      2039  TIP3      H1             15.8231661516      -15.3603444950       38.0388371686  TIP3      1939            0.0000000000
     19617      2039  TIP3      H2             15.8228047230      -15.4161187833       39.5240051986  TIP3      1939            0.0000000000
     19618      2040  TIP3      OH2            14.5813876231      -15.5765256338       41.0246711234  TIP3      1940            0.0000000000
     19619      2040  TIP3      H1             14.0800571080      -16.3062756773       41.4468318021  TIP3      1940            0.0000000000
     19620      2040  TIP3      H2             14.2852631817      -14.8035223857       41.5309175772  TIP3      1940            0.0000000000
     19621      2041  TIP3      OH2            11.9026820628      -15.9778215662       40.0496703894  TIP3      1941            0.0000000000
     19622      2041  TIP3      H1             12.4476038318      -15.5625682446       40.7292979176  TIP3      1941            0.0000000000
     19623      2041  TIP3      H2             12.5708168852      -16.5427354723       39.6054350186  TIP3      1941            0.0000000000
     19624      2042  TIP3      OH2             9.9036644575      -23.1455527792       39.5013088807  TIP3      1942            0.0000000000
     19625      2042  TIP3      H1             10.2680260903      -22.4640638098       40.0761653974  TIP3      1942            0.0000000000
     19626      2042  TIP3      H2              8.9497372388      -23.0787329977       39.6746096666  TIP3      1942            0.0000000000
     19627      2043  TIP3      OH2            18.4000939165      -13.1552414795       39.0216052827  TIP3      1943            0.0000000000
     19628      2043  TIP3      H1             17.8472462062      -13.9659854614       38.9434041077  TIP3      1943            0.0000000000
     19629      2043  TIP3      H2             19.2183405568      -13.4085988310       38.5423106041  TIP3      1943            0.0000000000
     19630      2044  TIP3      OH2            23.1179041114      -13.4934174094       39.0856610203  TIP3      1944            0.0000000000
     19631      2044  TIP3      H1             23.4820813913      -14.0690103234       39.7827787094  TIP3      1944            0.0000000000
     19632      2044  TIP3      H2             23.7659797340      -13.6039080221       38.3615473482  TIP3      1944            0.0000000000
     19633      2045  TIP3      OH2            13.7876532752      -17.6543608608       38.5643206355  TIP3      1945            0.0000000000
     19634      2045  TIP3      H1             14.1100271731      -18.2441197456       39.2618268878  TIP3      1945            0.0000000000
     19635      2045  TIP3      H2             14.4140139101      -17.8841352981       37.8420773007  TIP3      1945            0.0000000000
     19636      2046  TIP3      OH2            19.5124009323      -16.3262994058       38.5761709021  TIP3      1946            0.0000000000
     19637      2046  TIP3      H1             19.7453769170      -16.2434493402       39.5112747206  TIP3      1946            0.0000000000
     19638      2046  TIP3      H2             19.2428265284      -17.2704378343       38.5675542670  TIP3      1946            0.0000000000
     19639      2047  TIP3      OH2            14.4165016007      -19.5533039578       41.2292465466  TIP3      1947            0.0000000000
     19640      2047  TIP3      H1             13.7436944819      -20.1830205483       41.5310225091  TIP3      1947            0.0000000000
     19641      2047  TIP3      H2             15.0414439054      -20.1369497150       40.7441830437  TIP3      1947            0.0000000000
     19642      2048  TIP3      OH2            15.6696508858      -21.4799469514       39.6466543547  TIP3      1948            0.0000000000
     19643      2048  TIP3      H1             15.2180084183      -21.5775917508       38.7862136130  TIP3      1948            0.0000000000
     19644      2048  TIP3      H2             16.6159363415      -21.3964250657       39.4006432672  TIP3      1948            0.0000000000
     19645      2049  TIP3      OH2            25.4400686704      -19.0075413599       38.9820933497  TIP3      1949            0.0000000000
     19646      2049  TIP3      H1             25.1746244073      -19.3785372641       38.1207708318  TIP3      1949            0.0000000000
     19647      2049  TIP3      H2             25.5425523340      -18.0431781090       38.7806689392  TIP3      1949            0.0000000000
     19648      2050  TIP3      OH2            15.6849835011      -10.9856082727       41.1312509740  TIP3      1950            0.0000000000
     19649      2050  TIP3      H1             16.6246459133      -10.9801249467       40.8482527050  TIP3      1950            0.0000000000
     19650      2050  TIP3      H2             15.3557432529      -10.2240202881       40.6249361558  TIP3      1950            0.0000000000
     19651      2051  TIP3      OH2             9.3115230067      -16.4685113273       40.1839898084  TIP3      1951            0.0000000000
     19652      2051  TIP3      H1             10.2871252105      -16.3269961163       40.1353341579  TIP3      1951            0.0000000000
     19653      2051  TIP3      H2              9.2226765536      -17.2382873412       39.5798118207  TIP3      1951            0.0000000000
     19654      2052  TIP3      OH2            26.8499168070      -20.3632404450       40.9971368413  TIP3      1952            0.0000000000
     19655      2052  TIP3      H1             26.4298827575      -20.0874062776       40.1530991468  TIP3      1952            0.0000000000
     19656      2052  TIP3      H2             26.6296102054      -19.6012855101       41.5713501849  TIP3      1952            0.0000000000
     19657      2053  TIP3      OH2            24.5542026493      -23.3561209827       39.3560541993  TIP3      1953            0.0000000000
     19658      2053  TIP3      H1             25.0592543137      -22.5555883251       39.1171737682  TIP3      1953            0.0000000000
     19659      2053  TIP3      H2             24.1981925629      -23.6056427730       38.4820812990  TIP3      1953            0.0000000000
     19660      2054  TIP3      OH2            24.0494480944      -26.2470085451       38.8310326012  TIP3      1954            0.0000000000
     19661      2054  TIP3      H1             23.9939450155      -25.5745208474       39.5355771393  TIP3      1954            0.0000000000
     19662      2054  TIP3      H2             23.0947649771      -26.3636184583       38.6449658274  TIP3      1954            0.0000000000
     19663      2055  TIP3      OH2            26.2251616351      -27.3502534611       40.3179085778  TIP3      1955            0.0000000000
     19664      2055  TIP3      H1             26.1436818355      -28.1446809979       39.7678157413  TIP3      1955            0.0000000000
     19665      2055  TIP3      H2             25.4974383304      -26.8215860707       39.9422267566  TIP3      1955            0.0000000000
     19666      2056  TIP3      OH2            10.9300672350      -26.6927012898       39.7400679934  TIP3      1956            0.0000000000
     19667      2056  TIP3      H1             11.6128076658      -27.1216185825       39.1970953224  TIP3      1956            0.0000000000
     19668      2056  TIP3      H2             11.3852386910      -26.5209797806       40.5663174162  TIP3      1956            0.0000000000
     19669      2057  TIP3      OH2            18.2312269182      -10.7890223495       40.1724182448  TIP3      1957            0.0000000000
     19670      2057  TIP3      H1             19.1675534606      -10.6740921372       40.3508706667  TIP3      1957            0.0000000000
     19671      2057  TIP3      H2             18.2504214310      -11.7331875765       39.9030989102  TIP3      1957            0.0000000000
     19672      2058  TIP3      OH2            11.7452853529      -11.6114875450       39.5405481521  TIP3      1958            0.0000000000
     19673      2058  TIP3      H1             11.8186384495      -11.7516518293       40.4984345117  TIP3      1958            0.0000000000
     19674      2058  TIP3      H2             12.3994824954      -12.2694669236       39.2027473555  TIP3      1958            0.0000000000
     19675      2059  TIP3      OH2            29.4170083973      -20.2379476499       40.1891504451  TIP3      1959            0.0000000000
     19676      2059  TIP3      H1             29.4921359269      -20.4809287824       41.1177083431  TIP3      1959            0.0000000000
     19677      2059  TIP3      H2             28.4444292127      -20.1825316172       40.1509350260  TIP3      1959            0.0000000000
     19678      2060  TIP3      OH2            28.9315298924      -23.6778708656       39.4535361525  TIP3      1960            0.0000000000
     19679      2060  TIP3      H1             29.4487291684      -22.8692122960       39.3584275485  TIP3      1960            0.0000000000
     19680      2060  TIP3      H2             28.0882037135      -23.3549779912       39.7945001881  TIP3      1960            0.0000000000
     19681      2061  TIP3      OH2            28.0779038421      -16.4143925267       40.3041119031  TIP3      1961            0.0000000000
     19682      2061  TIP3      H1             29.0502016221      -16.2654876130       40.2860683412  TIP3      1961            0.0000000000
     19683      2061  TIP3      H2             27.9460224716      -16.9299321945       39.4784991418  TIP3      1961            0.0000000000
     19684      2062  TIP3      OH2           -19.3172183833       -2.3167868219       40.1876094089  TIP3      1962            0.0000000000
     19685      2062  TIP3      H1            -18.8762770084       -1.8311002577       40.8947892876  TIP3      1962            0.0000000000
     19686      2062  TIP3      H2            -18.5980242265       -2.8971917140       39.8646104746  TIP3      1962            0.0000000000
     19687      2063  TIP3      OH2           -11.2019030980        4.4440221808       39.6417138250  TIP3      1963            0.0000000000
     19688      2063  TIP3      H1            -11.1375554837        5.0932057549       40.3577434814  TIP3      1963            0.0000000000
     19689      2063  TIP3      H2            -10.6047387834        3.7475046155       39.9999408320  TIP3      1963            0.0000000000
     19690      2064  TIP3      OH2           -16.1730363747        6.8329392540       40.6849945592  TIP3      1964            0.0000000000
     19691      2064  TIP3      H1            -15.8093993119        6.2479286338       39.9865178256  TIP3      1964            0.0000000000
     19692      2064  TIP3      H2            -15.7979698109        6.3909755153       41.4612322711  TIP3      1964            0.0000000000
     19693      2065  TIP3      OH2           -14.9587504345       -0.2281142896       39.8784019661  TIP3      1965            0.0000000000
     19694      2065  TIP3      H1            -15.2811977291       -0.2308845130       38.9508015944  TIP3      1965            0.0000000000
     19695      2065  TIP3      H2            -13.9954232468       -0.2794519507       39.7199167191  TIP3      1965            0.0000000000
     19696      2066  TIP3      OH2           -19.8416259403       -7.2196268803       40.3551430287  TIP3      1966            0.0000000000
     19697      2066  TIP3      H1            -20.7670077923       -6.9961486201       40.5376332480  TIP3      1966            0.0000000000
     19698      2066  TIP3      H2            -19.9360123564       -8.0548429086       39.8812343098  TIP3      1966            0.0000000000
     19699      2067  TIP3      OH2           -22.9887313133       -6.4417904200       39.2362195771  TIP3      1967            0.0000000000
     19700      2067  TIP3      H1            -23.0326642591       -6.4806381664       40.2178964025  TIP3      1967            0.0000000000
     19701      2067  TIP3      H2            -23.7390306928       -5.8685154000       39.0114928131  TIP3      1967            0.0000000000
     19702      2068  TIP3      OH2           -24.2589110816       -4.1714249987       40.7887553548  TIP3      1968            0.0000000000
     19703      2068  TIP3      H1            -24.5324558265       -4.3179933741       39.8611396935  TIP3      1968            0.0000000000
     19704      2068  TIP3      H2            -23.5121374234       -3.5828835560       40.5983168788  TIP3      1968            0.0000000000
     19705      2069  TIP3      OH2           -17.2903851877       -6.1273185260       40.7083149447  TIP3      1969            0.0000000000
     19706      2069  TIP3      H1            -18.2694614356       -6.2193485417       40.7884988679  TIP3      1969            0.0000000000
     19707      2069  TIP3      H2            -17.0054687704       -6.5292265566       41.5516213421  TIP3      1969            0.0000000000
     19708      2070  TIP3      OH2           -27.0101462717       -0.8267566287       40.0409157887  TIP3      1970            0.0000000000
     19709      2070  TIP3      H1            -26.5548895355       -0.8941919173       40.8932061624  TIP3      1970            0.0000000000
     19710      2070  TIP3      H2            -27.6211598510       -1.5834337299       40.0674097303  TIP3      1970            0.0000000000
     19711      2071  TIP3      OH2           -15.1757622504        2.9361143504       40.2089837819  TIP3      1971            0.0000000000
     19712      2071  TIP3      H1            -15.0344238052        3.1410206286       41.1532466056  TIP3      1971            0.0000000000
     19713      2071  TIP3      H2            -15.9562079267        2.3529759788       40.2268045697  TIP3      1971            0.0000000000
     19714      2072  TIP3      OH2           -11.2827618390        7.0632945472       41.0446104519  TIP3      1972            0.0000000000
     19715      2072  TIP3      H1            -10.8589661609        7.6632606040       40.4144508157  TIP3      1972            0.0000000000
     19716      2072  TIP3      H2            -12.2188361838        7.3014978927       40.9678266783  TIP3      1972            0.0000000000
     19717      2073  TIP3      OH2           -21.3771477075        3.7822850476       38.7750825289  TIP3      1973            0.0000000000
     19718      2073  TIP3      H1            -21.8927018261        3.5094512435       37.9992298190  TIP3      1973            0.0000000000
     19719      2073  TIP3      H2            -21.9575123753        3.4873556113       39.4974063027  TIP3      1973            0.0000000000
     19720      2074  TIP3      OH2           -23.1614734051        3.7953361149       40.9359671075  TIP3      1974            0.0000000000
     19721      2074  TIP3      H1            -23.4097835367        2.8785060793       41.2004307721  TIP3      1974            0.0000000000
     19722      2074  TIP3      H2            -23.6269027692        4.3394714882       41.5981859481  TIP3      1974            0.0000000000
     19723      2075  TIP3      OH2           -26.0131295300        3.3258387689       40.7392958489  TIP3      1975            0.0000000000
     19724      2075  TIP3      H1            -25.8563246515        3.5744686574       41.6644532829  TIP3      1975            0.0000000000
     19725      2075  TIP3      H2            -25.1290787983        3.0837043863       40.4302324198  TIP3      1975            0.0000000000
     19726      2076  TIP3      OH2           -27.3862908947       -3.9364338425       39.1524188632  TIP3      1976            0.0000000000
     19727      2076  TIP3      H1            -26.9473447895       -4.2891345745       39.9465694456  TIP3      1976            0.0000000000
     19728      2076  TIP3      H2            -28.2422242779       -4.4118458208       39.1645416928  TIP3      1976            0.0000000000
     19729      2077  TIP3      OH2           -19.3421256463        5.5491590257       39.0968867389  TIP3      1977            0.0000000000
     19730      2077  TIP3      H1            -19.9544829474        4.7841825968       39.0162987825  TIP3      1977            0.0000000000
     19731      2077  TIP3      H2            -18.6198306311        5.2851670191       38.4944025692  TIP3      1977            0.0000000000
     19732      2078  TIP3      OH2           -15.0829198177        5.0998808007       38.6946579324  TIP3      1978            0.0000000000
     19733      2078  TIP3      H1            -14.9740270965        4.1788966245       39.0268938829  TIP3      1978            0.0000000000
     19734      2078  TIP3      H2            -14.3009088240        5.2122322004       38.1164385002  TIP3      1978            0.0000000000
     19735      2079  TIP3      OH2           -24.0532962598        1.0899607429       38.5409929886  TIP3      1979            0.0000000000
     19736      2079  TIP3      H1            -23.8505087426        0.4237274799       39.2173967111  TIP3      1979            0.0000000000
     19737      2079  TIP3      H2            -23.4147517783        0.8803258653       37.8279245810  TIP3      1979            0.0000000000
     19738      2080  TIP3      OH2           -18.1836765214        2.4434794924       38.7187318203  TIP3      1980            0.0000000000
     19739      2080  TIP3      H1            -18.0130500141        2.4560218388       39.6684700064  TIP3      1980            0.0000000000
     19740      2080  TIP3      H2            -18.4413597957        1.4963982702       38.6323826957  TIP3      1980            0.0000000000
     19741      2081  TIP3      OH2           -23.5435050129       -0.6794817490       40.8262864601  TIP3      1981            0.0000000000
     19742      2081  TIP3      H1            -23.6001892990       -1.1791460182       41.6495902328  TIP3      1981            0.0000000000
     19743      2081  TIP3      H2            -22.8221473410       -1.1667872707       40.3790359681  TIP3      1981            0.0000000000
     19744      2082  TIP3      OH2           -22.0110896523       -2.4724385470       39.5902784029  TIP3      1982            0.0000000000
     19745      2082  TIP3      H1            -22.4823221095       -2.6137060379       38.7480406486  TIP3      1982            0.0000000000
     19746      2082  TIP3      H2            -21.0623301902       -2.4429626674       39.3366149527  TIP3      1982            0.0000000000
     19747      2083  TIP3      OH2           -12.1643457019       -0.1340060068       38.9905731414  TIP3      1983            0.0000000000
     19748      2083  TIP3      H1            -12.3173842860       -0.4010955099       38.0552301027  TIP3      1983            0.0000000000
     19749      2083  TIP3      H2            -12.1376196909        0.8519552910       38.8700117312  TIP3      1983            0.0000000000
     19750      2084  TIP3      OH2           -22.0347206299        7.9380764417       41.0533044635  TIP3      1984            0.0000000000
     19751      2084  TIP3      H1            -21.0910184889        7.9315067528       40.7844183858  TIP3      1984            0.0000000000
     19752      2084  TIP3      H2            -22.4103571804        8.3973767985       40.2790034531  TIP3      1984            0.0000000000
     19753      2085  TIP3      OH2           -28.3546702233        2.6336302662       39.9591405144  TIP3      1985            0.0000000000
     19754      2085  TIP3      H1            -27.4406402246        2.8969174553       40.2081058683  TIP3      1985            0.0000000000
     19755      2085  TIP3      H2            -28.1700069362        1.8275813518       39.4288482878  TIP3      1985            0.0000000000
     19756      2086  TIP3      OH2           -11.0776658318       -1.3055007227       41.1879854399  TIP3      1986            0.0000000000
     19757      2086  TIP3      H1            -11.4890863793       -0.6676117771       40.5572477534  TIP3      1986            0.0000000000
     19758      2086  TIP3      H2            -11.1429137174       -0.7480479913       41.9828160978  TIP3      1986            0.0000000000
     19759      2087  TIP3      OH2           -12.8185002941       -4.1472681338       39.0477625082  TIP3      1987            0.0000000000
     19760      2087  TIP3      H1            -13.2780126620       -3.9426546609       38.2056572333  TIP3      1987            0.0000000000
     19761      2087  TIP3      H2            -12.9184353147       -5.1201058608       38.9994684979  TIP3      1987            0.0000000000
     19762      2088  TIP3      OH2           -13.6063298673       -6.8131399287       39.0336939191  TIP3      1988            0.0000000000
     19763      2088  TIP3      H1            -13.1034807725       -7.1191593255       39.8070406364  TIP3      1988            0.0000000000
     19764      2088  TIP3      H2            -14.5092106146       -6.9361820540       39.3475302027  TIP3      1988            0.0000000000
     19765      2089  TIP3      OH2           -11.4165941345       -8.2715341631       40.4526450164  TIP3      1989            0.0000000000
     19766      2089  TIP3      H1            -11.4065702414       -8.8660159508       39.6658988307  TIP3      1989            0.0000000000
     19767      2089  TIP3      H2            -10.6041826018       -8.5594525454       40.8870938002  TIP3      1989            0.0000000000
     19768      2090  TIP3      OH2           -26.1666210411       -7.1848052677       40.1495899872  TIP3      1990            0.0000000000
     19769      2090  TIP3      H1            -25.9416526712       -8.0710955701       39.8086732105  TIP3      1990            0.0000000000
     19770      2090  TIP3      H2            -26.5647285537       -7.4128475866       41.0100970136  TIP3      1990            0.0000000000
     19771      2091  TIP3      OH2           -19.4140904007        8.0356983493       40.0271697389  TIP3      1991            0.0000000000
     19772      2091  TIP3      H1            -18.6827226964        8.0696479756       40.6522797614  TIP3      1991            0.0000000000
     19773      2091  TIP3      H2            -19.2815851885        7.1334080960       39.6493072433  TIP3      1991            0.0000000000
     19774      2092  TIP3      OH2           -26.4878649065        7.0237607921       39.8624792172  TIP3      1992            0.0000000000
     19775      2092  TIP3      H1            -26.5069373903        7.0090185612       40.8387842531  TIP3      1992            0.0000000000
     19776      2092  TIP3      H2            -25.6478117434        6.5733016692       39.6592655297  TIP3      1992            0.0000000000
     19777      2093  TIP3      OH2            -0.4228920032       -2.4788701721       40.1402033374  TIP3      1993            0.0000000000
     19778      2093  TIP3      H1              0.1971096111       -1.7817814701       40.4194535433  TIP3      1993            0.0000000000
     19779      2093  TIP3      H2              0.1767814699       -3.0359511085       39.6082812374  TIP3      1993            0.0000000000
     19780      2094  TIP3      OH2             7.3507747259        4.3615447706       39.9542333044  TIP3      1994            0.0000000000
     19781      2094  TIP3      H1              7.6522569766        5.0855967213       40.5221215791  TIP3      1994            0.0000000000
     19782      2094  TIP3      H2              8.0292563105        3.6881049644       40.1817968138  TIP3      1994            0.0000000000
     19783      2095  TIP3      OH2             2.7114641022        6.8592857282       40.7689616242  TIP3      1995            0.0000000000
     19784      2095  TIP3      H1              3.0916865869        6.3262084348       40.0418114084  TIP3      1995            0.0000000000
     19785      2095  TIP3      H2              3.0826420155        6.3681462393       41.5314665599  TIP3      1995            0.0000000000
     19786      2096  TIP3      OH2             4.2142607312       -0.7558854931       40.0016676196  TIP3      1996            0.0000000000
     19787      2096  TIP3      H1              3.8930723586       -1.1165754271       39.1661754583  TIP3      1996            0.0000000000
     19788      2096  TIP3      H2              5.0845234183       -0.3799937299       39.7487342543  TIP3      1996            0.0000000000
     19789      2097  TIP3      OH2            -0.8117086819       -7.2597773527       40.0208959487  TIP3      1997            0.0000000000
     19790      2097  TIP3      H1             -1.6310926049       -6.9307028468       40.4129871022  TIP3      1997            0.0000000000
     19791      2097  TIP3      H2             -1.0432894792       -8.1875928636       39.8348977358  TIP3      1997            0.0000000000
     19792      2098  TIP3      OH2            -4.2587348573       -6.2527760262       39.4461328712  TIP3      1998            0.0000000000
     19793      2098  TIP3      H1             -4.2540288655       -6.3083894586       40.4317159255  TIP3      1998            0.0000000000
     19794      2098  TIP3      H2             -5.0739123509       -5.7479179147       39.2679452191  TIP3      1998            0.0000000000
     19795      2099  TIP3      OH2            -5.6264856251       -3.7153735466       40.5007018338  TIP3      1999            0.0000000000
     19796      2099  TIP3      H1             -5.7643554571       -4.0793384292       39.5937568117  TIP3      1999            0.0000000000
     19797      2099  TIP3      H2             -4.9534208854       -3.0575662314       40.2748016500  TIP3      1999            0.0000000000
     19798      2100  TIP3      OH2             1.5771214626       -5.9288091389       40.5523139808  TIP3      2000            0.0000000000
     19799      2100  TIP3      H1              0.6961749408       -6.3450950507       40.4461082965  TIP3      2000            0.0000000000
     19800      2100  TIP3      H2              1.6699583312       -5.9798328770       41.5247707833  TIP3      2000            0.0000000000
     19801      2101  TIP3      OH2            -8.1427115335       -1.0461724911       40.3538091673  TIP3      2001            0.0000000000
     19802      2101  TIP3      H1             -7.3948445641       -0.7931107360       40.9046516854  TIP3      2001            0.0000000000
     19803      2101  TIP3      H2             -8.8360496480       -1.0856177060       41.0338560132  TIP3      2001            0.0000000000
     19804      2102  TIP3      OH2             3.8791639813        2.4442404886       40.5708203047  TIP3      2002            0.0000000000
     19805      2102  TIP3      H1              3.6369652105        2.5315228081       41.5053133173  TIP3      2002            0.0000000000
     19806      2102  TIP3      H2              3.0518272256        2.1358800689       40.1834163087  TIP3      2002            0.0000000000
     19807      2103  TIP3      OH2             7.6504748967        7.0765242494       41.1563811217  TIP3      2003            0.0000000000
     19808      2103  TIP3      H1              8.0146030538        7.6361109170       40.4575817614  TIP3      2003            0.0000000000
     19809      2103  TIP3      H2              6.7258916577        7.3581044826       41.1866137804  TIP3      2003            0.0000000000
     19810      2104  TIP3      OH2            -2.2234981925        3.5579026423       38.2932011963  TIP3      2004            0.0000000000
     19811      2104  TIP3      H1             -2.7504404473        2.9354450584       37.7584180832  TIP3      2004            0.0000000000
     19812      2104  TIP3      H2             -2.7033690401        3.4502561096       39.1460931860  TIP3      2004            0.0000000000
     19813      2105  TIP3      OH2            -3.8503595218        3.3938120126       40.5710449727  TIP3      2005            0.0000000000
     19814      2105  TIP3      H1             -4.5271802379        2.7609105512       40.8734902539  TIP3      2005            0.0000000000
     19815      2105  TIP3      H2             -4.0995343691        4.2100703067       41.0350368356  TIP3      2005            0.0000000000
     19816      2106  TIP3      OH2            -6.9932906122        2.9607312571       40.1165934842  TIP3      2006            0.0000000000
     19817      2106  TIP3      H1             -6.3982733531        3.3172051732       40.7844745079  TIP3      2006            0.0000000000
     19818      2106  TIP3      H2             -6.3668919988        2.4430300525       39.5711002053  TIP3      2006            0.0000000000
     19819      2107  TIP3      OH2            -8.5974334752       -4.3903682906       40.0413377501  TIP3      2007            0.0000000000
     19820      2107  TIP3      H1             -7.9075128711       -3.8734681942       40.4928290388  TIP3      2007            0.0000000000
     19821      2107  TIP3      H2             -8.4765785456       -5.2797126565       40.4101420078  TIP3      2007            0.0000000000
     19822      2108  TIP3      OH2            -0.5187158719        5.7368511514       39.0897403548  TIP3      2008            0.0000000000
     19823      2108  TIP3      H1             -1.0252056044        4.9282026368       38.8689639417  TIP3      2008            0.0000000000
     19824      2108  TIP3      H2              0.3349418157        5.5299861062       38.6628664111  TIP3      2008            0.0000000000
     19825      2109  TIP3      OH2             3.9953070140        5.1395708056       38.9231830687  TIP3      2009            0.0000000000
     19826      2109  TIP3      H1              4.5191873783        4.8565666856       39.7032431920  TIP3      2009            0.0000000000
     19827      2109  TIP3      H2              4.6605805346        5.0982765320       38.2009626008  TIP3      2009            0.0000000000
     19828      2110  TIP3      OH2            -5.0505367863        1.2699268117       38.6788001471  TIP3      2010            0.0000000000
     19829      2110  TIP3      H1             -4.9357998752        0.6523273118       39.4207584008  TIP3      2010            0.0000000000
     19830      2110  TIP3      H2             -4.4320135260        0.9014802066       38.0104901918  TIP3      2010            0.0000000000
     19831      2111  TIP3      OH2             0.8303060274        2.3531269150       38.7089537331  TIP3      2011            0.0000000000
     19832      2111  TIP3      H1              1.0028047743        2.4033660857       39.6648302066  TIP3      2011            0.0000000000
     19833      2111  TIP3      H2              0.5435573273        1.4185774125       38.6200299351  TIP3      2011            0.0000000000
     19834      2112  TIP3      OH2            -4.4830177018       -0.4827158655       41.0651811249  TIP3      2012            0.0000000000
     19835      2112  TIP3      H1             -4.8660354099       -1.1484578254       41.6518319203  TIP3      2012            0.0000000000
     19836      2112  TIP3      H2             -3.8278605978       -1.0167056931       40.5695829464  TIP3      2012            0.0000000000
     19837      2113  TIP3      OH2            -3.0427083967       -2.1931853914       39.4358426911  TIP3      2013            0.0000000000
     19838      2113  TIP3      H1             -3.4138318227       -2.7793135614       38.7583229098  TIP3      2013            0.0000000000
     19839      2113  TIP3      H2             -2.0945400069       -2.4715653910       39.5002109253  TIP3      2013            0.0000000000
     19840      2114  TIP3      OH2             6.6646858090       -0.0313443536       39.0825898230  TIP3      2014            0.0000000000
     19841      2114  TIP3      H1              6.4349577428       -0.3660465543       38.2066542727  TIP3      2014            0.0000000000
     19842      2114  TIP3      H2              6.7819017868        0.9311154630       38.8746384213  TIP3      2014            0.0000000000
     19843      2115  TIP3      OH2            -3.2429501069        7.8828561649       41.0330828149  TIP3      2015            0.0000000000
     19844      2115  TIP3      H1             -2.2701568787        7.8732568207       40.8944424977  TIP3      2015            0.0000000000
     19845      2115  TIP3      H2             -3.4925139381        8.5335172392       40.3413868151  TIP3      2015            0.0000000000
     19846      2116  TIP3      OH2            -9.6034344906        2.4241338035       40.2801754822  TIP3      2016            0.0000000000
     19847      2116  TIP3      H1             -8.6257447774        2.5592504893       40.2275260650  TIP3      2016            0.0000000000
     19848      2116  TIP3      H2             -9.7219473343        1.8215359898       39.5248296529  TIP3      2016            0.0000000000
     19849      2117  TIP3      OH2             8.0659985415       -1.7294221589       40.8777139021  TIP3      2017            0.0000000000
     19850      2117  TIP3      H1              7.7223371228       -1.2291238859       40.1072261387  TIP3      2017            0.0000000000
     19851      2117  TIP3      H2              7.8614713613       -1.0828344031       41.5795508629  TIP3      2017            0.0000000000
     19852      2118  TIP3      OH2             5.4010375904       -4.0405153879       39.3146904151  TIP3      2018            0.0000000000
     19853      2118  TIP3      H1              6.1269680030       -3.4668393086       39.0218764440  TIP3      2018            0.0000000000
     19854      2118  TIP3      H2              5.5192608628       -4.8285068742       38.7500049955  TIP3      2018            0.0000000000
     19855      2119  TIP3      OH2             5.2753293964       -6.7939866961       38.9998656361  TIP3      2019            0.0000000000
     19856      2119  TIP3      H1              5.0468019592       -6.3096137614       39.8212738766  TIP3      2019            0.0000000000
     19857      2119  TIP3      H2              4.3899651601       -7.0082374450       38.6582823177  TIP3      2019            0.0000000000
     19858      2120  TIP3      OH2             7.4702712228       -8.2971840373       40.5674897704  TIP3      2020            0.0000000000
     19859      2120  TIP3      H1              7.5261426743       -8.9411754258       39.8213668610  TIP3      2020            0.0000000000
     19860      2120  TIP3      H2              6.9330462785       -7.5896445851       40.1607685499  TIP3      2020            0.0000000000
     19861      2121  TIP3      OH2            -7.6508619961       -7.0269517208       40.0680223059  TIP3      2021            0.0000000000
     19862      2121  TIP3      H1             -7.4706233321       -7.9616877583       39.8599420123  TIP3      2021            0.0000000000
     19863      2121  TIP3      H2             -7.5957473524       -6.9824490699       41.0336645199  TIP3      2021            0.0000000000
     19864      2122  TIP3      OH2            -0.5687024442        7.8568509767       40.7112533591  TIP3      2022            0.0000000000
     19865      2122  TIP3      H1              0.2835049683        8.2940790996       40.7693711471  TIP3      2022            0.0000000000
     19866      2122  TIP3      H2             -0.3594860868        7.0540465301       40.1843237432  TIP3      2022            0.0000000000
     19867      2123  TIP3      OH2            -6.9025542176        7.1003868104       39.5534613079  TIP3      2023            0.0000000000
     19868      2123  TIP3      H1             -7.0226325354        7.0345741916       40.5187675680  TIP3      2023            0.0000000000
     19869      2123  TIP3      H2             -6.0457137592        6.5975417197       39.4291749498  TIP3      2023            0.0000000000
     19870      2124  TIP3      OH2            18.2619285511       -2.5946324971       40.1364704613  TIP3      2024            0.0000000000
     19871      2124  TIP3      H1             18.7799944160       -1.9736147522       40.6661462138  TIP3      2024            0.0000000000
     19872      2124  TIP3      H2             18.9834100770       -3.0248194603       39.6264392771  TIP3      2024            0.0000000000
     19873      2125  TIP3      OH2            26.3287563773        4.5010361801       39.9086577653  TIP3      2025            0.0000000000
     19874      2125  TIP3      H1             26.2726356236        4.8355185633       40.8226076845  TIP3      2025            0.0000000000
     19875      2125  TIP3      H2             27.0769317357        3.8863298732       40.0459084718  TIP3      2025            0.0000000000
     19876      2126  TIP3      OH2            21.5363826528        6.8513311533       40.8739816682  TIP3      2026            0.0000000000
     19877      2126  TIP3      H1             22.1435290678        6.4246266324       40.2274660949  TIP3      2026            0.0000000000
     19878      2126  TIP3      H2             21.7162632494        6.2710694720       41.6304725602  TIP3      2026            0.0000000000
     19879      2127  TIP3      OH2            22.9762290520       -0.5829493726       39.9712493933  TIP3      2027            0.0000000000
     19880      2127  TIP3      H1             22.5543549655       -0.8876356766       39.1512635692  TIP3      2027            0.0000000000
     19881      2127  TIP3      H2             23.9054100923       -0.4833490099       39.6682334315  TIP3      2027            0.0000000000
     19882      2128  TIP3      OH2            17.9259042153       -7.2478104768       40.2012241564  TIP3      2028            0.0000000000
     19883      2128  TIP3      H1             16.9877213791       -7.0695808703       40.3712161575  TIP3      2028            0.0000000000
     19884      2128  TIP3      H2             17.8825743779       -8.1607843113       39.8886389919  TIP3      2028            0.0000000000
     19885      2129  TIP3      OH2            14.7027783778       -6.3935198239       39.5151082771  TIP3      2029            0.0000000000
     19886      2129  TIP3      H1             14.4853647855       -6.5794157755       40.4564819709  TIP3      2029            0.0000000000
     19887      2129  TIP3      H2             13.9776348219       -5.8063099953       39.2477670412  TIP3      2029            0.0000000000
     19888      2130  TIP3      OH2            13.6004606461       -3.9263997174       40.7915631559  TIP3      2030            0.0000000000
     19889      2130  TIP3      H1             13.2425199439       -4.2420966175       39.9420779238  TIP3      2030            0.0000000000
     19890      2130  TIP3      H2             14.2983447452       -3.3364519588       40.4438100401  TIP3      2030            0.0000000000
     19891      2131  TIP3      OH2            20.6043614901       -5.8237109497       40.4494839987  TIP3      2031            0.0000000000
     19892      2131  TIP3      H1             19.6551075414       -6.0382333422       40.4659805073  TIP3      2031            0.0000000000
     19893      2131  TIP3      H2             20.7730744477       -5.6588996623       41.4059066147  TIP3      2031            0.0000000000
     19894      2132  TIP3      OH2            10.6208708507       -1.0986705372       40.0568470267  TIP3      2032            0.0000000000
     19895      2132  TIP3      H1             11.0752637403       -0.7709517994       40.8464642322  TIP3      2032            0.0000000000
     19896      2132  TIP3      H2              9.8982458239       -1.6485075749       40.4208591553  TIP3      2032            0.0000000000
     19897      2133  TIP3      OH2            22.8412300162        2.8970392748       40.4111028770  TIP3      2033            0.0000000000
     19898      2133  TIP3      H1             22.7141439819        2.7055943932       41.3510203333  TIP3      2033            0.0000000000
     19899      2133  TIP3      H2             22.0669464194        2.4609261521       40.0157113585  TIP3      2033            0.0000000000
     19900      2134  TIP3      OH2            26.8778967519        7.1630073058       41.4113206756  TIP3      2034            0.0000000000
     19901      2134  TIP3      H1             27.3847255597        7.4641119671       40.6460404119  TIP3      2034            0.0000000000
     19902      2134  TIP3      H2             26.0036563961        7.0518542675       41.0068245645  TIP3      2034            0.0000000000
     19903      2135  TIP3      OH2            16.5294052172        3.6916173278       38.5295497491  TIP3      2035            0.0000000000
     19904      2135  TIP3      H1             15.8421496804        3.5998270958       37.8480705393  TIP3      2035            0.0000000000
     19905      2135  TIP3      H2             16.1491339716        3.1400698298       39.2250709893  TIP3      2035            0.0000000000
     19906      2136  TIP3      OH2            14.4391316383        3.4423434608       40.9372316486  TIP3      2036            0.0000000000
     19907      2136  TIP3      H1             14.0758026728        2.6443981339       41.3870239589  TIP3      2036            0.0000000000
     19908      2136  TIP3      H2             14.0813380478        4.1826118584       41.4600742618  TIP3      2036            0.0000000000
     19909      2137  TIP3      OH2            11.8723639335        2.8202694486       39.9508372307  TIP3      2037            0.0000000000
     19910      2137  TIP3      H1             12.3906015882        3.1832094901       40.6877086337  TIP3      2037            0.0000000000
     19911      2137  TIP3      H2             12.5843884050        2.3073283309       39.5089162461  TIP3      2037            0.0000000000
     19912      2138  TIP3      OH2            10.0606534958       -4.1544805563       39.5152097923  TIP3      2038            0.0000000000
     19913      2138  TIP3      H1             10.7049242594       -4.0690443256       40.2402797285  TIP3      2038            0.0000000000
     19914      2138  TIP3      H2              9.2301516762       -4.2713455742       39.9938157698  TIP3      2038            0.0000000000
     19915      2139  TIP3      OH2            18.4488974598        5.5618564434       39.0154520803  TIP3      2039            0.0000000000
     19916      2139  TIP3      H1             17.8760110983        4.7715666768       38.9017268345  TIP3      2039            0.0000000000
     19917      2139  TIP3      H2             19.2334772698        5.3009893350       38.4959585292  TIP3      2039            0.0000000000
     19918      2140  TIP3      OH2            23.0966328512        5.3494128787       39.0979125244  TIP3      2040            0.0000000000
     19919      2140  TIP3      H1             23.3299218677        4.6452098197       39.7411560935  TIP3      2040            0.0000000000
     19920      2140  TIP3      H2             23.8258155685        5.2824505604       38.4477087031  TIP3      2040            0.0000000000
     19921      2141  TIP3      OH2            13.8115657961        1.2238038759       38.5422746910  TIP3      2041            0.0000000000
     19922      2141  TIP3      H1             13.8134448814        0.4810956311       39.1702255977  TIP3      2041            0.0000000000
     19923      2141  TIP3      H2             14.4289922479        0.8913518942       37.8574628234  TIP3      2041            0.0000000000
     19924      2142  TIP3      OH2            19.6973713843        2.4899205287       38.6190231035  TIP3      2042            0.0000000000
     19925      2142  TIP3      H1             19.8451186898        2.4085137247       39.5784833333  TIP3      2042            0.0000000000
     19926      2142  TIP3      H2             19.3048451513        1.6162768806       38.4464778888  TIP3      2042            0.0000000000
     19927      2143  TIP3      OH2            14.3124541468       -0.6567983009       41.2474085014  TIP3      2043            0.0000000000
     19928      2143  TIP3      H1             14.0697477245       -1.3049499492       41.9252763347  TIP3      2043            0.0000000000
     19929      2143  TIP3      H2             14.8383988311       -1.2253093772       40.6483655798  TIP3      2043            0.0000000000
     19930      2144  TIP3      OH2            15.5535354677       -2.3392903399       39.5743972298  TIP3      2044            0.0000000000
     19931      2144  TIP3      H1             15.1238490905       -2.6561799327       38.7552262883  TIP3      2044            0.0000000000
     19932      2144  TIP3      H2             16.5089808619       -2.4630070097       39.3868203771  TIP3      2044            0.0000000000
     19933      2145  TIP3      OH2            25.4700282766       -0.1729713890       38.9419461219  TIP3      2045            0.0000000000
     19934      2145  TIP3      H1             25.1982314590       -0.5675000265       38.0900460189  TIP3      2045            0.0000000000
     19935      2145  TIP3      H2             25.6371654322        0.7723160788       38.7118804980  TIP3      2045            0.0000000000
     19936      2146  TIP3      OH2            15.6234856180        7.9009451090       41.0905034737  TIP3      2046            0.0000000000
     19937      2146  TIP3      H1             16.5562114179        7.8651201720       40.8153501272  TIP3      2046            0.0000000000
     19938      2146  TIP3      H2             15.2802308157        8.4755807606       40.3837243586  TIP3      2046            0.0000000000
     19939      2147  TIP3      OH2             9.2704377028        2.4668352887       40.1966389699  TIP3      2047            0.0000000000
     19940      2147  TIP3      H1             10.2503098618        2.5548011172       40.1524517021  TIP3      2047            0.0000000000
     19941      2147  TIP3      H2              9.1504651849        1.6818098110       39.6133936724  TIP3      2047            0.0000000000
     19942      2148  TIP3      OH2            26.8185775498       -1.3654045427       41.0772736710  TIP3      2048            0.0000000000
     19943      2148  TIP3      H1             26.5031695135       -1.0962863446       40.1920551425  TIP3      2048            0.0000000000
     19944      2148  TIP3      H2             26.5032104182       -0.5963046836       41.6009883399  TIP3      2048            0.0000000000
     19945      2149  TIP3      OH2            25.2952798338       -4.5930508633       39.2501122846  TIP3      2049            0.0000000000
     19946      2149  TIP3      H1             25.4935530863       -3.7698983985       38.7759062761  TIP3      2049            0.0000000000
     19947      2149  TIP3      H2             24.9442287133       -5.1208365029       38.5145511171  TIP3      2049            0.0000000000
     19948      2150  TIP3      OH2            24.0604220605       -7.3180613886       38.4938668967  TIP3      2050            0.0000000000
     19949      2150  TIP3      H1             24.1038458006       -7.0281036875       39.4187132706  TIP3      2050            0.0000000000
     19950      2150  TIP3      H2             23.2337918593       -6.8974084074       38.2106666967  TIP3      2050            0.0000000000
     19951      2151  TIP3      OH2            26.0937014566       -8.2806568377       40.2130417810  TIP3      2051            0.0000000000
     19952      2151  TIP3      H1             26.2585052659       -9.1256866804       39.7439654030  TIP3      2051            0.0000000000
     19953      2151  TIP3      H2             25.6727344412       -7.7703208745       39.5005439275  TIP3      2051            0.0000000000
     19954      2152  TIP3      OH2            11.6207773224       -7.0399463600       39.8087026192  TIP3      2052            0.0000000000
     19955      2152  TIP3      H1             12.1849109744       -7.6527297610       39.2982456583  TIP3      2052            0.0000000000
     19956      2152  TIP3      H2             10.9409444575       -7.6376106804       40.1516871693  TIP3      2052            0.0000000000
     19957      2153  TIP3      OH2            18.1453662307        7.9501131503       40.0198265248  TIP3      2053            0.0000000000
     19958      2153  TIP3      H1             19.0068406188        7.8674816443       40.4408590056  TIP3      2053            0.0000000000
     19959      2153  TIP3      H2             18.1486350737        7.0989191652       39.5304860996  TIP3      2053            0.0000000000
     19960      2154  TIP3      OH2            11.8027213374        7.1729992524       39.6526638625  TIP3      2054            0.0000000000
     19961      2154  TIP3      H1             11.5868267753        7.0472249062       40.5956720442  TIP3      2054            0.0000000000
     19962      2154  TIP3      H2             12.6268730300        6.6377894676       39.5908733390  TIP3      2054            0.0000000000
     19963      2155  TIP3      OH2            29.4448020278       -1.9837173898       40.2261231215  TIP3      2055            0.0000000000
     19964      2155  TIP3      H1             29.5429351901       -1.2999983287       40.9112714217  TIP3      2055            0.0000000000
     19965      2155  TIP3      H2             28.4832806459       -1.9291524443       40.0476948913  TIP3      2055            0.0000000000
     19966      2156  TIP3      OH2            28.9910200409       -4.6981971431       39.3148863679  TIP3      2056            0.0000000000
     19967      2156  TIP3      H1             29.2572950665       -3.9113707051       39.8261561617  TIP3      2056            0.0000000000
     19968      2156  TIP3      H2             28.1317197150       -4.8943224947       39.7153361846  TIP3      2056            0.0000000000
     19969      2157  TIP3      OH2            28.1586706814        2.4166853497       40.4255691766  TIP3      2057            0.0000000000
     19970      2157  TIP3      H1             29.1194997781        2.5776566542       40.2675926470  TIP3      2057            0.0000000000
     19971      2157  TIP3      H2             28.0003412087        1.7154713397       39.7722497219  TIP3      2057            0.0000000000
     19972      2158  TIP3      OH2           -19.3179945826       16.3923880363       40.3112548794  TIP3      2058            0.0000000000
     19973      2158  TIP3      H1            -18.8066486742       17.1258603364       40.6806849302  TIP3      2058            0.0000000000
     19974      2158  TIP3      H2            -18.5929111086       15.9247877021       39.8371671547  TIP3      2058            0.0000000000
     19975      2159  TIP3      OH2           -11.1322889473       23.3218588756       39.5977098619  TIP3      2059            0.0000000000
     19976      2159  TIP3      H1            -11.1371043548       23.8423114873       40.4215898771  TIP3      2059            0.0000000000
     19977      2159  TIP3      H2            -10.6371754808       22.5460889613       39.9390232200  TIP3      2059            0.0000000000
     19978      2160  TIP3      OH2           -16.4397305533       25.3560503406       40.7464520240  TIP3      2060            0.0000000000
     19979      2160  TIP3      H1            -15.8441306733       24.9954917252       40.0546651022  TIP3      2060            0.0000000000
     19980      2160  TIP3      H2            -16.0682374762       24.9171972329       41.5346194552  TIP3      2060            0.0000000000
     19981      2161  TIP3      OH2           -14.5359791464       18.0679173253       40.0195827374  TIP3      2061            0.0000000000
     19982      2161  TIP3      H1            -14.9845371588       17.8982482636       39.1773829139  TIP3      2061            0.0000000000
     19983      2161  TIP3      H2            -13.6936859873       18.4338058475       39.6928883341  TIP3      2061            0.0000000000
     19984      2162  TIP3      OH2           -19.8694307922       11.4957011445       40.3829985091  TIP3      2062            0.0000000000
     19985      2162  TIP3      H1            -20.7753600654       11.8079740238       40.5097723132  TIP3      2062            0.0000000000
     19986      2162  TIP3      H2            -20.0072658061       10.6256358264       39.9601046489  TIP3      2062            0.0000000000
     19987      2163  TIP3      OH2           -23.1329209388       12.3796859121       39.1569720649  TIP3      2063            0.0000000000
     19988      2163  TIP3      H1            -23.3327674903       12.1896259065       40.1014435857  TIP3      2063            0.0000000000
     19989      2163  TIP3      H2            -23.8074818239       13.0402605759       38.9184542954  TIP3      2063            0.0000000000
     19990      2164  TIP3      OH2           -24.1465049344       14.7718952835       40.7201543820  TIP3      2064            0.0000000000
     19991      2164  TIP3      H1            -24.4267070934       14.5211738545       39.8160873173  TIP3      2064            0.0000000000
     19992      2164  TIP3      H2            -23.4337351889       15.3873200971       40.4951453847  TIP3      2064            0.0000000000
     19993      2165  TIP3      OH2           -17.3404697841       12.5124701512       40.7153433365  TIP3      2065            0.0000000000
     19994      2165  TIP3      H1            -18.3033176916       12.3031936625       40.7390635413  TIP3      2065            0.0000000000
     19995      2165  TIP3      H2            -17.0229554699       12.0768715742       41.5293083935  TIP3      2065            0.0000000000
     19996      2166  TIP3      OH2           -27.1031982672       18.0206125047       40.1722720973  TIP3      2066            0.0000000000
     19997      2166  TIP3      H1            -26.5337023530       17.9763982951       40.9543991253  TIP3      2066            0.0000000000
     19998      2166  TIP3      H2            -27.4816410146       17.1291494907       40.1362342120  TIP3      2066            0.0000000000
     19999      2167  TIP3      OH2           -14.7903350729       21.7700444288       40.4425518875  TIP3      2067            0.0000000000
     20000      2167  TIP3      H1            -14.9281687285       21.9490199632       41.3843184714  TIP3      2067            0.0000000000
     20001      2167  TIP3      H2            -15.6036779711       21.2799339608       40.2386592046  TIP3      2067            0.0000000000
     20002      2168  TIP3      OH2           -11.2455694408       25.7742080405       41.3599582918  TIP3      2068            0.0000000000
     20003      2168  TIP3      H1            -10.6970259802       26.1368366287       40.6462311612  TIP3      2068            0.0000000000
     20004      2168  TIP3      H2            -12.1174754587       26.0921184241       41.0787333765  TIP3      2068            0.0000000000
     20005      2169  TIP3      OH2           -21.5517097132       22.7226242747       38.8279081070  TIP3      2069            0.0000000000
     20006      2169  TIP3      H1            -21.8441712849       22.1902444452       38.0742939683  TIP3      2069            0.0000000000
     20007      2169  TIP3      H2            -22.0844955025       22.3372138782       39.5524852030  TIP3      2069            0.0000000000
     20008      2170  TIP3      OH2           -23.0147763727       22.4016858134       41.0697862718  TIP3      2070            0.0000000000
     20009      2170  TIP3      H1            -23.3317410989       21.5205949705       41.3533524834  TIP3      2070            0.0000000000
     20010      2170  TIP3      H2            -23.3955141186       22.9772644514       41.7567237328  TIP3      2070            0.0000000000
     20011      2171  TIP3      OH2           -25.7299708877       21.7106462986       40.3452644286  TIP3      2071            0.0000000000
     20012      2171  TIP3      H1            -25.2583405304       22.0115724606       41.1288670204  TIP3      2071            0.0000000000
     20013      2171  TIP3      H2            -25.0202659794       21.3194829143       39.8012370806  TIP3      2071            0.0000000000
     20014      2172  TIP3      OH2           -27.4822924631       14.7259521343       39.0150259227  TIP3      2072            0.0000000000
     20015      2172  TIP3      H1            -27.1625903115       14.2691859292       39.8082911021  TIP3      2072            0.0000000000
     20016      2172  TIP3      H2            -28.4248954728       14.4230400588       39.0083232256  TIP3      2072            0.0000000000
     20017      2173  TIP3      OH2           -19.3843092486       24.4602542324       39.0300696430  TIP3      2073            0.0000000000
     20018      2173  TIP3      H1            -20.0452095033       23.7410388532       38.8925049036  TIP3      2073            0.0000000000
     20019      2173  TIP3      H2            -18.5899005333       24.0570915530       38.6359693115  TIP3      2073            0.0000000000
     20020      2174  TIP3      OH2           -14.7940048653       24.0747637882       38.9641493784  TIP3      2074            0.0000000000
     20021      2174  TIP3      H1            -14.4292907852       23.5500561644       39.7068397909  TIP3      2074            0.0000000000
     20022      2174  TIP3      H2            -14.0829524860       24.0524938622       38.2926629444  TIP3      2074            0.0000000000
     20023      2175  TIP3      OH2           -24.0668867058       19.9373482910       38.6707631427  TIP3      2075            0.0000000000
     20024      2175  TIP3      H1            -23.9026540670       19.3964303039       39.4626057249  TIP3      2075            0.0000000000
     20025      2175  TIP3      H2            -23.4030342963       19.6091994510       38.0328485200  TIP3      2075            0.0000000000
     20026      2176  TIP3      OH2           -18.3550501735       21.4262116764       38.6540701836  TIP3      2076            0.0000000000
     20027      2176  TIP3      H1            -18.0677679659       21.3428895886       39.5816702489  TIP3      2076            0.0000000000
     20028      2176  TIP3      H2            -18.6277726559       20.5013409750       38.4909288900  TIP3      2076            0.0000000000
     20029      2177  TIP3      OH2           -23.5440374347       18.1645199826       40.9759183472  TIP3      2077            0.0000000000
     20030      2177  TIP3      H1            -23.6395130221       17.4631724989       41.6359962127  TIP3      2077            0.0000000000
     20031      2177  TIP3      H2            -22.7922974615       17.8056466258       40.4535334369  TIP3      2077            0.0000000000
     20032      2178  TIP3      OH2           -21.8549545489       16.7060539668       39.6106586557  TIP3      2078            0.0000000000
     20033      2178  TIP3      H1            -22.1779810725       16.4178351356       38.7342480364  TIP3      2078            0.0000000000
     20034      2178  TIP3      H2            -20.9004707437       16.4584475495       39.5842642602  TIP3      2078            0.0000000000
     20035      2179  TIP3      OH2           -12.1114233299       18.7157888698       38.7992675496  TIP3      2079            0.0000000000
     20036      2179  TIP3      H1            -12.4039939880       18.3609802941       37.9272893749  TIP3      2079            0.0000000000
     20037      2179  TIP3      H2            -12.2422640196       19.6908159587       38.6690594781  TIP3      2079            0.0000000000
     20038      2180  TIP3      OH2           -22.1158126680       26.6143208425       41.0382656275  TIP3      2080            0.0000000000
     20039      2180  TIP3      H1            -21.1729429365       26.7327145622       40.7627000215  TIP3      2080            0.0000000000
     20040      2180  TIP3      H2            -22.5584382562       27.1643924528       40.3698551927  TIP3      2080            0.0000000000
     20041      2181  TIP3      OH2           -28.2654362882       21.8628300755       40.0013175807  TIP3      2081            0.0000000000
     20042      2181  TIP3      H1            -27.3345268914       22.0172361317       40.2775440905  TIP3      2081            0.0000000000
     20043      2181  TIP3      H2            -28.0788829878       21.0264136082       39.5182047162  TIP3      2081            0.0000000000
     20044      2182  TIP3      OH2           -10.7768608391       17.4737573730       40.9481149246  TIP3      2082            0.0000000000
     20045      2182  TIP3      H1            -11.1636489023       17.7708793639       40.0990792441  TIP3      2082            0.0000000000
     20046      2182  TIP3      H2            -11.1093212160       18.1850297846       41.5397192513  TIP3      2082            0.0000000000
     20047      2183  TIP3      OH2           -12.7381978560       14.8201588059       39.6441929383  TIP3      2083            0.0000000000
     20048      2183  TIP3      H1            -12.4578721478       15.6111861490       39.1634279669  TIP3      2083            0.0000000000
     20049      2183  TIP3      H2            -13.1957254080       14.3111509115       38.9598020384  TIP3      2083            0.0000000000
     20050      2184  TIP3      OH2           -13.5873238636       11.8717259123       38.7031611454  TIP3      2084            0.0000000000
     20051      2184  TIP3      H1            -13.3978177093       11.7590345538       39.6501116413  TIP3      2084            0.0000000000
     20052      2184  TIP3      H2            -14.5448774617       11.9896096532       38.7031509516  TIP3      2084            0.0000000000
     20053      2185  TIP3      OH2           -11.5921659861       10.7023083742       40.6120172905  TIP3      2085            0.0000000000
     20054      2185  TIP3      H1            -11.2316115213        9.9964122423       40.0323634437  TIP3      2085            0.0000000000
     20055      2185  TIP3      H2            -11.3155660463       11.4900082201       40.1297758234  TIP3      2085            0.0000000000
     20056      2186  TIP3      OH2           -26.0414334012       11.7695034269       40.2376839414  TIP3      2086            0.0000000000
     20057      2186  TIP3      H1            -26.0028119654       10.8498293586       39.9364347359  TIP3      2086            0.0000000000
     20058      2186  TIP3      H2            -26.2726338851       11.6439124637       41.1729005980  TIP3      2086            0.0000000000
     20059      2187  TIP3      OH2           -19.5750580861       26.8735391744       40.1182833008  TIP3      2087            0.0000000000
     20060      2187  TIP3      H1            -18.7686658417       27.0182144193       40.6181328334  TIP3      2087            0.0000000000
     20061      2187  TIP3      H2            -19.3927196805       25.9717012922       39.7648787586  TIP3      2087            0.0000000000
     20062      2188  TIP3      OH2           -26.5752261740       26.1316156483       39.6775627074  TIP3      2088            0.0000000000
     20063      2188  TIP3      H1            -26.5931982878       26.3049418349       40.6370988778  TIP3      2088            0.0000000000
     20064      2188  TIP3      H2            -25.6833129420       25.7363846611       39.5869158232  TIP3      2088            0.0000000000
     20065      2189  TIP3      OH2            -0.4927451253       16.4484856278       40.1598423864  TIP3      2089            0.0000000000
     20066      2189  TIP3      H1             -0.0356097545       16.8747926328       40.9028932745  TIP3      2089            0.0000000000
     20067      2189  TIP3      H2              0.2658001981       15.9917018273       39.7374951599  TIP3      2089            0.0000000000
     20068      2190  TIP3      OH2             7.5990135216       23.3001861434       39.7991244926  TIP3      2090            0.0000000000
     20069      2190  TIP3      H1              7.7572034391       23.9346915597       40.5155094262  TIP3      2090            0.0000000000
     20070      2190  TIP3      H2              8.1599994766       22.5487036260       40.0982398485  TIP3      2090            0.0000000000
     20071      2191  TIP3      OH2             2.3379805879       25.5166436417       40.5666172164  TIP3      2091            0.0000000000
     20072      2191  TIP3      H1              2.9457740357       25.0966447206       39.9215629128  TIP3      2091            0.0000000000
     20073      2191  TIP3      H2              2.6635921522       25.1136570508       41.3875082561  TIP3      2091            0.0000000000
     20074      2192  TIP3      OH2             4.1934531905       18.2848589400       40.0219953197  TIP3      2092            0.0000000000
     20075      2192  TIP3      H1              3.8381761688       17.8724657244       39.2138353585  TIP3      2092            0.0000000000
     20076      2192  TIP3      H2              5.1003482044       18.5049809891       39.7426470431  TIP3      2092            0.0000000000
     20077      2193  TIP3      OH2            -0.8015837003       11.7081828710       40.4203264462  TIP3      2093            0.0000000000
     20078      2193  TIP3      H1             -1.6079403154       12.2105024438       40.5949610439  TIP3      2093            0.0000000000
     20079      2193  TIP3      H2             -1.1798834342       10.9364900631       39.9649353038  TIP3      2093            0.0000000000
     20080      2194  TIP3      OH2            -4.1372501600       12.4877049201       39.5293217502  TIP3      2094            0.0000000000
     20081      2194  TIP3      H1             -4.3497647353       12.2340522578       40.4622316384  TIP3      2094            0.0000000000
     20082      2194  TIP3      H2             -4.9041063194       13.0467471043       39.2950761987  TIP3      2094            0.0000000000
     20083      2195  TIP3      OH2            -5.2761000652       15.2029924805       40.6532903600  TIP3      2095            0.0000000000
     20084      2195  TIP3      H1             -5.7203927015       14.9964095241       39.8167576849  TIP3      2095            0.0000000000
     20085      2195  TIP3      H2             -4.4237642274       15.5178511185       40.2943025206  TIP3      2095            0.0000000000
     20086      2196  TIP3      OH2             1.7662137608       12.7775042974       40.6150575330  TIP3      2096            0.0000000000
     20087      2196  TIP3      H1              0.8264687166       12.4939948808       40.6695080046  TIP3      2096            0.0000000000
     20088      2196  TIP3      H2              2.0972524845       12.4543841385       41.4839524952  TIP3      2096            0.0000000000
     20089      2197  TIP3      OH2            -8.2296148623       17.5982036798       40.1536147179  TIP3      2097            0.0000000000
     20090      2197  TIP3      H1             -7.7330658936       17.9614107023       40.9075943059  TIP3      2097            0.0000000000
     20091      2197  TIP3      H2             -9.1491042146       17.5787981458       40.4935155530  TIP3      2097            0.0000000000
     20092      2198  TIP3      OH2             3.9871768012       21.6602152079       40.4236639027  TIP3      2098            0.0000000000
     20093      2198  TIP3      H1              3.9201673058       21.7178082658       41.3888430053  TIP3      2098            0.0000000000
     20094      2198  TIP3      H2              3.1394149806       21.2426083006       40.2092853354  TIP3      2098            0.0000000000
     20095      2199  TIP3      OH2             7.6012005702       25.8679218232       41.2484490997  TIP3      2099            0.0000000000
     20096      2199  TIP3      H1              8.1023723059       26.2325116407       40.4914257671  TIP3      2099            0.0000000000
     20097      2199  TIP3      H2              6.7119362945       26.1821481777       41.0435093023  TIP3      2099            0.0000000000
     20098      2200  TIP3      OH2            -2.5984783022       22.6363326646       38.7941376398  TIP3      2100            0.0000000000
     20099      2200  TIP3      H1             -2.9664396851       22.1555192987       38.0419347679  TIP3      2100            0.0000000000
     20100      2200  TIP3      H2             -3.1447455470       22.2650126290       39.5116635055  TIP3      2100            0.0000000000
     20101      2201  TIP3      OH2            -4.2197898387       22.1506086338       41.0193840832  TIP3      2101            0.0000000000
     20102      2201  TIP3      H1             -4.7595755489       21.4120142552       41.3555612308  TIP3      2101            0.0000000000
     20103      2201  TIP3      H2             -4.5549044210       22.8857629863       41.5609638811  TIP3      2101            0.0000000000
     20104      2202  TIP3      OH2            -6.8746381841       21.7940598868       40.0100751854  TIP3      2102            0.0000000000
     20105      2202  TIP3      H1             -6.4147175986       21.9440488020       40.8498034166  TIP3      2102            0.0000000000
     20106      2202  TIP3      H2             -6.2328231805       21.2134148680       39.5396849487  TIP3      2102            0.0000000000
     20107      2203  TIP3      OH2            -8.8983015530       14.7536324493       39.9259799473  TIP3      2103            0.0000000000
     20108      2203  TIP3      H1             -8.6112971407       15.6787756073       40.0143562389  TIP3      2103            0.0000000000
     20109      2203  TIP3      H2             -9.8682206303       14.8378295388       39.8512257739  TIP3      2103            0.0000000000
     20110      2204  TIP3      OH2            -0.4870742545       24.5695139594       38.9210989900  TIP3      2104            0.0000000000
     20111      2204  TIP3      H1             -1.1221339173       23.8228792571       38.8658353683  TIP3      2104            0.0000000000
     20112      2204  TIP3      H2              0.3277623352       24.1536482432       38.5719278287  TIP3      2104            0.0000000000
     20113      2205  TIP3      OH2             4.0906642623       24.1787149177       38.9034972110  TIP3      2105            0.0000000000
     20114      2205  TIP3      H1              4.4359915361       23.5848131676       39.5909606658  TIP3      2105            0.0000000000
     20115      2205  TIP3      H2              4.7880720794       24.1662925468       38.2115351022  TIP3      2105            0.0000000000
     20116      2206  TIP3      OH2            -5.0042246958       20.1413419539       38.6791863041  TIP3      2106            0.0000000000
     20117      2206  TIP3      H1             -4.7130957752       19.5122553486       39.3530059819  TIP3      2106            0.0000000000
     20118      2206  TIP3      H2             -4.4269900941       19.8722370125       37.9318247243  TIP3      2106            0.0000000000
     20119      2207  TIP3      OH2             0.3702864426       21.4063731377       38.6973202555  TIP3      2107            0.0000000000
     20120      2207  TIP3      H1              0.7100385768       21.3241487202       39.6056293914  TIP3      2107            0.0000000000
     20121      2207  TIP3      H2              0.2204887471       20.4643894065       38.4872373107  TIP3      2107            0.0000000000
     20122      2208  TIP3      OH2            -4.4449506799       18.2414605480       41.2844790665  TIP3      2108            0.0000000000
     20123      2208  TIP3      H1             -5.1447776592       17.5977393275       41.4759919843  TIP3      2108            0.0000000000
     20124      2208  TIP3      H2             -3.8560515130       17.7178742482       40.7078566345  TIP3      2108            0.0000000000
     20125      2209  TIP3      OH2            -3.1046055724       16.4252860986       39.5860043994  TIP3      2109            0.0000000000
     20126      2209  TIP3      H1             -3.4486095093       16.2246570735       38.6962834497  TIP3      2109            0.0000000000
     20127      2209  TIP3      H2             -2.1296561640       16.3607007892       39.4621753543  TIP3      2109            0.0000000000
     20128      2210  TIP3      OH2             6.6572746591       18.8233815394       38.8779685795  TIP3      2110            0.0000000000
     20129      2210  TIP3      H1              6.3605348531       18.5368679967       37.9994961546  TIP3      2110            0.0000000000
     20130      2210  TIP3      H2              6.5915464831       19.8085517274       38.7826239888  TIP3      2110            0.0000000000
     20131      2211  TIP3      OH2            -3.1649128309       26.7704708750       41.3185281802  TIP3      2111            0.0000000000
     20132      2211  TIP3      H1             -2.1907265591       26.8294815715       41.2709157828  TIP3      2111            0.0000000000
     20133      2211  TIP3      H2             -3.3790519557       27.2796073445       40.5233676953  TIP3      2111            0.0000000000
     20134      2212  TIP3      OH2            -9.4968163123       21.2896773131       40.2025623940  TIP3      2112            0.0000000000
     20135      2212  TIP3      H1             -8.5221583433       21.4345945430       40.1551876641  TIP3      2112            0.0000000000
     20136      2212  TIP3      H2             -9.6342877133       20.8122131854       39.3571901026  TIP3      2112            0.0000000000
     20137      2213  TIP3      OH2             8.1233237525       17.4448101838       40.9809115094  TIP3      2113            0.0000000000
     20138      2213  TIP3      H1              7.7442409238       17.7297581850       40.1246967958  TIP3      2113            0.0000000000
     20139      2213  TIP3      H2              7.7443150463       18.1380747218       41.5605992375  TIP3      2113            0.0000000000
     20140      2214  TIP3      OH2             5.9983814605       14.6632262360       39.5213260877  TIP3      2114            0.0000000000
     20141      2214  TIP3      H1              6.4137736619       15.2668991038       38.8797039842  TIP3      2114            0.0000000000
     20142      2214  TIP3      H2              5.5823481980       14.0153262975       38.9282783243  TIP3      2114            0.0000000000
     20143      2215  TIP3      OH2             5.0934489869       11.9145377163       38.6572486694  TIP3      2115            0.0000000000
     20144      2215  TIP3      H1              4.9145068876       12.0310375953       39.6026060057  TIP3      2115            0.0000000000
     20145      2215  TIP3      H2              4.2025086513       11.9462842245       38.2908195627  TIP3      2115            0.0000000000
     20146      2216  TIP3      OH2             7.3680945173       10.6342491241       40.6015941181  TIP3      2116            0.0000000000
     20147      2216  TIP3      H1              7.6592790698        9.9743675232       39.9402351755  TIP3      2116            0.0000000000
     20148      2216  TIP3      H2              6.8665222493       11.2710723635       40.0670004216  TIP3      2116            0.0000000000
     20149      2217  TIP3      OH2            -7.6520952424       11.6413887632       39.6834555314  TIP3      2117            0.0000000000
     20150      2217  TIP3      H1             -7.3389394229       10.7241781162       39.5926643476  TIP3      2117            0.0000000000
     20151      2217  TIP3      H2             -7.8722997736       11.7420423353       40.6165676552  TIP3      2117            0.0000000000
     20152      2218  TIP3      OH2            -0.5135590192       26.8133735593       40.3274090453  TIP3      2118            0.0000000000
     20153      2218  TIP3      H1              0.3872568088       26.6602069609       40.6280412791  TIP3      2118            0.0000000000
     20154      2218  TIP3      H2             -0.6346053356       25.9733188612       39.8407695874  TIP3      2118            0.0000000000
     20155      2219  TIP3      OH2            -7.3132949334       26.4840849240       39.7918518692  TIP3      2119            0.0000000000
     20156      2219  TIP3      H1             -7.3704469037       26.4490767708       40.7702666454  TIP3      2119            0.0000000000
     20157      2219  TIP3      H2             -6.5763555783       25.8590648338       39.6578628261  TIP3      2119            0.0000000000
     20158      2220  TIP3      OH2            18.3454420291       16.2369102440       40.0774675189  TIP3      2120            0.0000000000
     20159      2220  TIP3      H1             18.8177530783       16.8902898549       40.6035171377  TIP3      2120            0.0000000000
     20160      2220  TIP3      H2             19.0549446868       15.9193155358       39.4776660585  TIP3      2120            0.0000000000
     20161      2221  TIP3      OH2            26.3867883251       23.3659027653       39.9145744692  TIP3      2121            0.0000000000
     20162      2221  TIP3      H1             26.2265006623       23.6771442317       40.8237233412  TIP3      2121            0.0000000000
     20163      2221  TIP3      H2             27.1439495844       22.7652812619       40.0796230832  TIP3      2121            0.0000000000
     20164      2222  TIP3      OH2            21.1867084544       25.7512325972       40.9072633665  TIP3      2122            0.0000000000
     20165      2222  TIP3      H1             21.9451856331       25.2416896226       40.5545410354  TIP3      2122            0.0000000000
     20166      2222  TIP3      H2             21.3429714715       25.7602099731       41.8654103860  TIP3      2122            0.0000000000
     20167      2223  TIP3      OH2            22.9806115244       18.3776608479       40.1691989375  TIP3      2123            0.0000000000
     20168      2223  TIP3      H1             22.3991136136       18.2444986641       39.4047244097  TIP3      2123            0.0000000000
     20169      2223  TIP3      H2             23.8574566552       18.4458802311       39.7241943844  TIP3      2123            0.0000000000
     20170      2224  TIP3      OH2            17.8894519885       11.5648056744       40.1941081893  TIP3      2124            0.0000000000
     20171      2224  TIP3      H1             16.9700212278       11.8206220817       40.3693885527  TIP3      2124            0.0000000000
     20172      2224  TIP3      H2             17.8048731553       10.6581731266       39.8651651945  TIP3      2124            0.0000000000
     20173      2225  TIP3      OH2            14.6861574466       12.4644233055       39.4361537537  TIP3      2125            0.0000000000
     20174      2225  TIP3      H1             14.4746718230       12.2939859324       40.3835573615  TIP3      2125            0.0000000000
     20175      2225  TIP3      H2             13.9125848104       12.9762061883       39.1243949785  TIP3      2125            0.0000000000
     20176      2226  TIP3      OH2            13.5552944943       14.9070183961       40.7433848006  TIP3      2126            0.0000000000
     20177      2226  TIP3      H1             13.1272242752       14.5872253415       39.9316743139  TIP3      2126            0.0000000000
     20178      2226  TIP3      H2             14.3587987634       15.3018623883       40.3554284043  TIP3      2126            0.0000000000
     20179      2227  TIP3      OH2            20.5843554689       12.8816623448       40.4548348169  TIP3      2127            0.0000000000
     20180      2227  TIP3      H1             19.6955022473       12.5240777558       40.6586854042  TIP3      2127            0.0000000000
     20181      2227  TIP3      H2             20.9002235170       13.0888119265       41.3555242230  TIP3      2127            0.0000000000
     20182      2228  TIP3      OH2            10.6770214566       17.6275634142       40.1840730384  TIP3      2128            0.0000000000
     20183      2228  TIP3      H1             11.0195950746       17.8851834078       41.0591775589  TIP3      2128            0.0000000000
     20184      2228  TIP3      H2              9.7211753389       17.5231205772       40.3701598527  TIP3      2128            0.0000000000
     20185      2229  TIP3      OH2            22.7086046994       21.7358279655       40.4138626974  TIP3      2129            0.0000000000
     20186      2229  TIP3      H1             22.5394479415       21.7852865951       41.3634369134  TIP3      2129            0.0000000000
     20187      2229  TIP3      H2             21.9300917542       21.2494138366       40.0864543941  TIP3      2129            0.0000000000
     20188      2230  TIP3      OH2            26.5402534505       25.8970132304       41.3915780825  TIP3      2130            0.0000000000
     20189      2230  TIP3      H1             27.1635755453       26.0283074472       40.6565603129  TIP3      2130            0.0000000000
     20190      2230  TIP3      H2             25.7376943760       26.2007512266       40.9499233256  TIP3      2130            0.0000000000
     20191      2231  TIP3      OH2            16.4921532875       22.5105878229       38.8201789495  TIP3      2131            0.0000000000
     20192      2231  TIP3      H1             16.1004016549       22.0640733873       38.0602015497  TIP3      2131            0.0000000000
     20193      2231  TIP3      H2             15.9500661206       22.1447763631       39.5319821187  TIP3      2131            0.0000000000
     20194      2232  TIP3      OH2            14.5669765029       22.1349852553       41.0400243085  TIP3      2132            0.0000000000
     20195      2232  TIP3      H1             14.1118335837       21.3701809431       41.4459530752  TIP3      2132            0.0000000000
     20196      2232  TIP3      H2             14.1925482063       22.8570541605       41.5633230218  TIP3      2132            0.0000000000
     20197      2233  TIP3      OH2            11.8694513580       21.8042378484       40.1319074451  TIP3      2133            0.0000000000
     20198      2233  TIP3      H1             12.3110504342       21.9770150704       40.9788117490  TIP3      2133            0.0000000000
     20199      2233  TIP3      H2             12.5928859764       21.3942769132       39.6199287686  TIP3      2133            0.0000000000
     20200      2234  TIP3      OH2             9.8533357665       14.6343600910       39.6507878070  TIP3      2134            0.0000000000
     20201      2234  TIP3      H1             10.2895168300       15.3037668055       40.2035868689  TIP3      2134            0.0000000000
     20202      2234  TIP3      H2              8.9066521048       14.7301578343       39.8621646486  TIP3      2134            0.0000000000
     20203      2235  TIP3      OH2            18.4137664580       24.4176883307       39.0017111944  TIP3      2135            0.0000000000
     20204      2235  TIP3      H1             17.8054728874       23.6420813826       38.9746472237  TIP3      2135            0.0000000000
     20205      2235  TIP3      H2             19.1463384145       24.0813819222       38.4447019544  TIP3      2135            0.0000000000
     20206      2236  TIP3      OH2            23.1426630378       24.2944589429       39.2000255456  TIP3      2136            0.0000000000
     20207      2236  TIP3      H1             23.2288433920       23.4322942751       39.6496314161  TIP3      2136            0.0000000000
     20208      2236  TIP3      H2             23.8115671315       24.2203164854       38.4835381427  TIP3      2136            0.0000000000
     20209      2237  TIP3      OH2            14.0252315896       20.1840082892       38.6845098058  TIP3      2137            0.0000000000
     20210      2237  TIP3      H1             14.2480641785       19.7269563406       39.5097459008  TIP3      2137            0.0000000000
     20211      2237  TIP3      H2             14.7459764049       19.8609249586       38.0943855850  TIP3      2137            0.0000000000
     20212      2238  TIP3      OH2            19.3719186367       21.2717338792       38.7514762107  TIP3      2138            0.0000000000
     20213      2238  TIP3      H1             19.4733690063       21.2294398484       39.7219305235  TIP3      2138            0.0000000000
     20214      2238  TIP3      H2             19.2144670545       20.3195989351       38.5842099462  TIP3      2138            0.0000000000
     20215      2239  TIP3      OH2            14.3554859540       18.2886184425       41.1968647499  TIP3      2139            0.0000000000
     20216      2239  TIP3      H1             13.5922927983       17.6959682756       41.1839475770  TIP3      2139            0.0000000000
     20217      2239  TIP3      H2             15.0236937041       17.7597873690       40.7128491696  TIP3      2139            0.0000000000
     20218      2240  TIP3      OH2            15.7592728272       16.5466564485       39.5402183008  TIP3      2140            0.0000000000
     20219      2240  TIP3      H1             15.5581240997       16.4270046433       38.5938684621  TIP3      2140            0.0000000000
     20220      2240  TIP3      H2             16.7137148463       16.3099466156       39.5763520208  TIP3      2140            0.0000000000
     20221      2241  TIP3      OH2            25.4265991927       18.7328660865       38.9721619181  TIP3      2141            0.0000000000
     20222      2241  TIP3      H1             25.2246408267       18.4034598834       38.0699470390  TIP3      2141            0.0000000000
     20223      2241  TIP3      H2             25.6425919675       19.6730038484       38.7757537974  TIP3      2141            0.0000000000
     20224      2242  TIP3      OH2            15.7016779262       26.7577136646       41.2751828812  TIP3      2142            0.0000000000
     20225      2242  TIP3      H1             16.6508567391       26.7508997160       41.0416200123  TIP3      2142            0.0000000000
     20226      2242  TIP3      H2             15.3579524665       27.3476515478       40.5757848693  TIP3      2142            0.0000000000
     20227      2243  TIP3      OH2             9.2159013466       21.1810814467       40.2340473647  TIP3      2143            0.0000000000
     20228      2243  TIP3      H1             10.1780041156       21.3909341162       40.2301685855  TIP3      2143            0.0000000000
     20229      2243  TIP3      H2              9.2173260688       20.4628977660       39.5724520046  TIP3      2143            0.0000000000
     20230      2244  TIP3      OH2            26.8470846341       17.4399469266       41.0368455108  TIP3      2144            0.0000000000
     20231      2244  TIP3      H1             26.3227401170       17.7156328371       40.2498900032  TIP3      2144            0.0000000000
     20232      2244  TIP3      H2             26.6009175360       18.1421831107       41.6651954131  TIP3      2144            0.0000000000
     20233      2245  TIP3      OH2            25.0605911176       14.0572162039       39.2662052204  TIP3      2145            0.0000000000
     20234      2245  TIP3      H1             25.0110766673       14.9719666722       38.9684199565  TIP3      2145            0.0000000000
     20235      2245  TIP3      H2             24.7663774422       13.5815381899       38.4745604263  TIP3      2145            0.0000000000
     20236      2246  TIP3      OH2            23.9268305560       11.3204451503       38.6115740685  TIP3      2146            0.0000000000
     20237      2246  TIP3      H1             24.0067960781       11.6710261531       39.5122090738  TIP3      2146            0.0000000000
     20238      2246  TIP3      H2             23.0175875247       11.5655352826       38.3869472248  TIP3      2146            0.0000000000
     20239      2247  TIP3      OH2            26.2084449280       10.7145067795       40.3612199240  TIP3      2147            0.0000000000
     20240      2247  TIP3      H1             26.3880001461        9.8455727051       39.9444209269  TIP3      2147            0.0000000000
     20241      2247  TIP3      H2             25.8631864613       11.2073049881       39.5972854084  TIP3      2147            0.0000000000
     20242      2248  TIP3      OH2            11.8948264275       11.3597708930       39.9713628270  TIP3      2148            0.0000000000
     20243      2248  TIP3      H1             12.3986654877       10.7581039799       39.3768030264  TIP3      2148            0.0000000000
     20244      2248  TIP3      H2             11.0316928927       10.9269368440       39.9399961449  TIP3      2148            0.0000000000
     20245      2249  TIP3      OH2            18.3871442180       26.6935136522       40.2656084787  TIP3      2149            0.0000000000
     20246      2249  TIP3      H1             19.3054318323       26.6342993446       40.5640675562  TIP3      2149            0.0000000000
     20247      2249  TIP3      H2             18.3212610985       25.7930580879       39.8840559985  TIP3      2149            0.0000000000
     20248      2250  TIP3      OH2            11.6406196303       26.3060214046       39.6111983723  TIP3      2150            0.0000000000
     20249      2250  TIP3      H1             11.5304324243       26.2092494553       40.5767567588  TIP3      2150            0.0000000000
     20250      2250  TIP3      H2             12.3763473700       25.6761474039       39.4451945902  TIP3      2150            0.0000000000
     20251      2251  TIP3      OH2            29.3480576634       16.8838698315       40.2293970532  TIP3      2151            0.0000000000
     20252      2251  TIP3      H1             29.6801236676       17.2777144834       41.0516122292  TIP3      2151            0.0000000000
     20253      2251  TIP3      H2             28.4187488615       17.2129596285       40.2730451713  TIP3      2151            0.0000000000
     20254      2252  TIP3      OH2            29.0003982013       14.2398529323       39.6542384853  TIP3      2152            0.0000000000
     20255      2252  TIP3      H1             29.2021035958       15.1547561233       39.9452868370  TIP3      2152            0.0000000000
     20256      2252  TIP3      H2             28.0558582863       14.1570691742       39.8624565381  TIP3      2152            0.0000000000
     20257      2253  TIP3      OH2            28.2184571390       21.2948849946       40.3164380792  TIP3      2153            0.0000000000
     20258      2253  TIP3      H1             29.1701919155       21.5075570466       40.1701989037  TIP3      2153            0.0000000000
     20259      2253  TIP3      H2             28.0620153343       20.6323680028       39.6151740640  TIP3      2153            0.0000000000
     20260      2254  TIP3      OH2           -17.5597305248      -19.3373395408      -34.6994767388  TIP3      2154            0.0000000000
     20261      2254  TIP3      H1            -17.6488908246      -18.4069836738      -34.4070651066  TIP3      2154            0.0000000000
     20262      2254  TIP3      H2            -18.3475117470      -19.4300312538      -35.2619286053  TIP3      2154            0.0000000000
     20263      2255  TIP3      OH2           -18.9139186429      -20.3103580507      -31.3272721191  TIP3      2155            0.0000000000
     20264      2255  TIP3      H1            -18.7842098107      -20.8344454945      -30.5126312537  TIP3      2155            0.0000000000
     20265      2255  TIP3      H2            -19.6290599203      -20.7897211139      -31.7779901645  TIP3      2155            0.0000000000
     20266      2256  TIP3      OH2           -26.2107136532      -20.4397187725      -29.8196764381  TIP3      2156            0.0000000000
     20267      2256  TIP3      H1            -26.2430286313      -21.2785780031      -29.3393620655  TIP3      2156            0.0000000000
     20268      2256  TIP3      H2            -25.6231769061      -19.9034207523      -29.2589763492  TIP3      2156            0.0000000000
     20269      2257  TIP3      OH2           -15.4621065181      -17.3227514936      -32.5289343729  TIP3      2157            0.0000000000
     20270      2257  TIP3      H1            -15.4838333556      -18.0914137717      -31.9321293912  TIP3      2157            0.0000000000
     20271      2257  TIP3      H2            -15.4308043253      -16.5782004950      -31.9092102465  TIP3      2157            0.0000000000
     20272      2258  TIP3      OH2           -25.6954119718      -15.8553520079      -31.7901065744  TIP3      2158            0.0000000000
     20273      2258  TIP3      H1            -25.9851632454      -16.7813337183      -31.9657170069  TIP3      2158            0.0000000000
     20274      2258  TIP3      H2            -24.7261097436      -15.9996041660      -31.7427316115  TIP3      2158            0.0000000000
     20275      2259  TIP3      OH2           -28.8073215021      -22.2636512756      -35.4186706478  TIP3      2159            0.0000000000
     20276      2259  TIP3      H1            -29.1179687450      -21.3630730633      -35.5889824679  TIP3      2159            0.0000000000
     20277      2259  TIP3      H2            -29.5948571291      -22.7924515199      -35.6374725383  TIP3      2159            0.0000000000
     20278      2260  TIP3      OH2           -28.3113194362      -20.1548648679      -32.8935132226  TIP3      2160            0.0000000000
     20279      2260  TIP3      H1            -27.7456176231      -20.9591321568      -32.9000784889  TIP3      2160            0.0000000000
     20280      2260  TIP3      H2            -27.6984184127      -19.4960571426      -33.2691495196  TIP3      2160            0.0000000000
     20281      2261  TIP3      OH2           -17.8756522597      -11.8374601682      -32.8406384033  TIP3      2161            0.0000000000
     20282      2261  TIP3      H1            -17.2129077012      -12.4504852084      -33.2551028218  TIP3      2161            0.0000000000
     20283      2261  TIP3      H2            -18.3504547824      -12.4954083845      -32.3157161212  TIP3      2161            0.0000000000
     20284      2262  TIP3      OH2           -20.7886408437      -17.3880296869      -30.2458823520  TIP3      2162            0.0000000000
     20285      2262  TIP3      H1            -20.4165605862      -17.6438997181      -31.1036455143  TIP3      2162            0.0000000000
     20286      2262  TIP3      H2            -19.9565352277      -17.1567029758      -29.7777413864  TIP3      2162            0.0000000000
     20287      2263  TIP3      OH2           -11.8317567654      -26.3925939904      -30.2193145943  TIP3      2163            0.0000000000
     20288      2263  TIP3      H1            -11.6237252358      -25.7360676971      -29.5185779543  TIP3      2163            0.0000000000
     20289      2263  TIP3      H2            -11.2246856955      -26.1255516770      -30.9291357133  TIP3      2163            0.0000000000
     20290      2264  TIP3      OH2           -16.9031807209      -23.2468758350      -30.1997337240  TIP3      2164            0.0000000000
     20291      2264  TIP3      H1            -16.7835801460      -24.1701130760      -29.9233341754  TIP3      2164            0.0000000000
     20292      2264  TIP3      H2            -17.1385329314      -23.3664299702      -31.1346418065  TIP3      2164            0.0000000000
     20293      2265  TIP3      OH2           -23.9370210188      -25.2220391520      -33.5824582532  TIP3      2165            0.0000000000
     20294      2265  TIP3      H1            -23.9866078390      -24.4025485469      -34.1227995122  TIP3      2165            0.0000000000
     20295      2265  TIP3      H2            -24.3709737476      -25.8318752128      -34.2244390417  TIP3      2165            0.0000000000
     20296      2266  TIP3      OH2           -16.8642393125      -24.7079884745      -33.9376970048  TIP3      2166            0.0000000000
     20297      2266  TIP3      H1            -16.1181801188      -25.1224506242      -33.4420659011  TIP3      2166            0.0000000000
     20298      2266  TIP3      H2            -16.8402834221      -25.1623922930      -34.8008618462  TIP3      2166            0.0000000000
     20299      2267  TIP3      OH2           -26.8876130745      -22.7546033252      -32.4753890897  TIP3      2167            0.0000000000
     20300      2267  TIP3      H1            -26.1300745510      -23.1968697527      -32.0418857510  TIP3      2167            0.0000000000
     20301      2267  TIP3      H2            -26.9011193979      -23.2490016061      -33.3266331031  TIP3      2167            0.0000000000
     20302      2268  TIP3      OH2           -22.4973321012      -20.9507469762      -33.3091829909  TIP3      2168            0.0000000000
     20303      2268  TIP3      H1            -21.6519690364      -21.3582425931      -33.0132784275  TIP3      2168            0.0000000000
     20304      2268  TIP3      H2            -22.8727164704      -21.7403012284      -33.7589686007  TIP3      2168            0.0000000000
     20305      2269  TIP3      OH2           -11.5575056097      -24.8307277691      -27.9815332297  TIP3      2169            0.0000000000
     20306      2269  TIP3      H1            -11.9761986773      -23.9680880940      -28.2027350306  TIP3      2169            0.0000000000
     20307      2269  TIP3      H2            -11.7228335129      -24.8590229753      -27.0251417310  TIP3      2169            0.0000000000
     20308      2270  TIP3      OH2           -25.2258468119      -26.3442504104      -29.3338960313  TIP3      2170            0.0000000000
     20309      2270  TIP3      H1            -25.4251916749      -25.7432734641      -30.0919441665  TIP3      2170            0.0000000000
     20310      2270  TIP3      H2            -26.0434731484      -26.2803290716      -28.8028998707  TIP3      2170            0.0000000000
     20311      2271  TIP3      OH2           -18.3825028969      -16.7059174276      -35.6243354767  TIP3      2171            0.0000000000
     20312      2271  TIP3      H1            -18.4350294118      -16.6666372203      -36.6032024295  TIP3      2171            0.0000000000
     20313      2271  TIP3      H2            -18.9465552745      -15.9458038198      -35.3857213825  TIP3      2171            0.0000000000
     20314      2272  TIP3      OH2           -23.0719949831      -18.5286784261      -29.3042915658  TIP3      2172            0.0000000000
     20315      2272  TIP3      H1            -23.6424173496      -17.8174470024      -28.9455957913  TIP3      2172            0.0000000000
     20316      2272  TIP3      H2            -22.3086209553      -17.9920353582      -29.6296196685  TIP3      2172            0.0000000000
     20317      2273  TIP3      OH2           -14.6484342548      -25.3419162346      -32.6251638832  TIP3      2173            0.0000000000
     20318      2273  TIP3      H1            -14.5073349253      -26.2013473853      -32.1602163933  TIP3      2173            0.0000000000
     20319      2273  TIP3      H2            -14.0246234914      -24.7538020738      -32.1723467478  TIP3      2173            0.0000000000
     20320      2274  TIP3      OH2           -25.1559454287      -24.4445435971      -31.3055095765  TIP3      2174            0.0000000000
     20321      2274  TIP3      H1            -24.5315770620      -23.9057248468      -30.7640480089  TIP3      2174            0.0000000000
     20322      2274  TIP3      H2            -24.6194357553      -24.6301222600      -32.1134179995  TIP3      2174            0.0000000000
     20323      2275  TIP3      OH2           -24.2104837462      -16.1164994315      -28.5648766634  TIP3      2175            0.0000000000
     20324      2275  TIP3      H1            -24.3324077189      -15.4760710090      -29.2820530343  TIP3      2175            0.0000000000
     20325      2275  TIP3      H2            -25.1134654586      -16.1105021245      -28.1764004901  TIP3      2175            0.0000000000
     20326      2276  TIP3      OH2           -28.2726683921      -16.4077873021      -37.4230133245  TIP3      2176            0.0000000000
     20327      2276  TIP3      H1            -28.0659397084      -15.7112294022      -38.0624235118  TIP3      2176            0.0000000000
     20328      2276  TIP3      H2            -28.0920387090      -15.9928541497      -36.5610330572  TIP3      2176            0.0000000000
     20329      2277  TIP3      OH2           -14.6928751446      -15.1657918177      -30.5880278076  TIP3      2177            0.0000000000
     20330      2277  TIP3      H1            -15.6310399839      -14.9954393617      -30.3452833352  TIP3      2177            0.0000000000
     20331      2277  TIP3      H2            -14.5398713436      -14.4072882692      -31.1775127953  TIP3      2177            0.0000000000
     20332      2278  TIP3      OH2           -14.2198338470      -26.2781950821      -28.7184598153  TIP3      2178            0.0000000000
     20333      2278  TIP3      H1            -14.9491622824      -25.8500337472      -29.2013896590  TIP3      2178            0.0000000000
     20334      2278  TIP3      H2            -13.5579824863      -26.4050288215      -29.4350937121  TIP3      2178            0.0000000000
     20335      2279  TIP3      OH2           -21.3128885080      -28.3218675591      -32.1520217245  TIP3      2179            0.0000000000
     20336      2279  TIP3      H1            -21.2267627972      -29.1618301312      -31.6675364711  TIP3      2179            0.0000000000
     20337      2279  TIP3      H2            -22.0760658834      -27.9256417008      -31.6676982873  TIP3      2179            0.0000000000
     20338      2280  TIP3      OH2           -16.1811948105      -13.5595001631      -33.9828235853  TIP3      2180            0.0000000000
     20339      2280  TIP3      H1            -16.0432175809      -14.3014347045      -34.6094734099  TIP3      2180            0.0000000000
     20340      2280  TIP3      H2            -15.3682068971      -13.0239248111      -34.1451312158  TIP3      2180            0.0000000000
     20341      2281  TIP3      OH2           -15.3067849816      -15.6879789599      -35.5134888877  TIP3      2181            0.0000000000
     20342      2281  TIP3      H1            -15.4442073826      -16.3512014180      -36.2137728066  TIP3      2181            0.0000000000
     20343      2281  TIP3      H2            -15.4390009722      -16.2371728336      -34.7263715392  TIP3      2181            0.0000000000
     20344      2282  TIP3      OH2           -13.5607199664      -16.8004179478      -26.8590787078  TIP3      2182            0.0000000000
     20345      2282  TIP3      H1            -13.4161894173      -17.5825029376      -27.4376245109  TIP3      2182            0.0000000000
     20346      2282  TIP3      H2            -13.3759916799      -16.0675695767      -27.4900302428  TIP3      2182            0.0000000000
     20347      2283  TIP3      OH2           -19.1632862557      -19.9195894050      -37.3067276649  TIP3      2183            0.0000000000
     20348      2283  TIP3      H1            -19.6647175117      -19.0975230774      -37.4974631215  TIP3      2183            0.0000000000
     20349      2283  TIP3      H2            -18.4016757977      -19.8846135109      -37.9150053557  TIP3      2183            0.0000000000
     20350      2284  TIP3      OH2           -18.8910567413      -21.5669631422      -39.9842193416  TIP3      2184            0.0000000000
     20351      2284  TIP3      H1            -18.0422267605      -21.1543137693      -39.7405432466  TIP3      2184            0.0000000000
     20352      2284  TIP3      H2            -18.6417681937      -22.3487916571      -40.4977016111  TIP3      2184            0.0000000000
     20353      2285  TIP3      OH2           -11.5575699187      -20.5223419913      -29.0242924959  TIP3      2185            0.0000000000
     20354      2285  TIP3      H1            -12.1215641298      -19.7247544715      -28.9366867505  TIP3      2185            0.0000000000
     20355      2285  TIP3      H2            -10.9827929577      -20.2307725940      -29.7691586024  TIP3      2185            0.0000000000
     20356      2286  TIP3      OH2           -15.1451076113      -19.9501364511      -35.9761172821  TIP3      2186            0.0000000000
     20357      2286  TIP3      H1            -15.9380935454      -19.6759413778      -35.4560379238  TIP3      2186            0.0000000000
     20358      2286  TIP3      H2            -14.7141945539      -20.5728483315      -35.3522860842  TIP3      2186            0.0000000000
     20359      2287  TIP3      OH2           -15.6311300254      -21.7109719318      -27.0088643608  TIP3      2187            0.0000000000
     20360      2287  TIP3      H1            -15.8370578967      -20.8524658801      -26.5971564270  TIP3      2187            0.0000000000
     20361      2287  TIP3      H2            -16.2183416574      -21.6411669837      -27.7804235382  TIP3      2187            0.0000000000
     20362      2288  TIP3      OH2           -24.2355214342      -19.2357185583      -34.1385463590  TIP3      2188            0.0000000000
     20363      2288  TIP3      H1            -24.5503259484      -19.6527176505      -34.9720081442  TIP3      2188            0.0000000000
     20364      2288  TIP3      H2            -23.4789091421      -19.8175007525      -33.8941764612  TIP3      2188            0.0000000000
     20365      2289  TIP3      OH2           -22.9033883070      -15.8655937804      -31.8454326707  TIP3      2189            0.0000000000
     20366      2289  TIP3      H1            -22.7321419505      -15.9354828367      -32.7984825102  TIP3      2189            0.0000000000
     20367      2289  TIP3      H2            -22.1468597202      -16.3201429842      -31.4331016988  TIP3      2189            0.0000000000
     20368      2290  TIP3      OH2           -23.4773198903      -20.7945696868      -30.8043255559  TIP3      2190            0.0000000000
     20369      2290  TIP3      H1            -23.2515077549      -20.6653755409      -31.7456511973  TIP3      2190            0.0000000000
     20370      2290  TIP3      H2            -23.1728005550      -19.9565816411      -30.4006760639  TIP3      2190            0.0000000000
     20371      2291  TIP3      OH2           -17.2752725482      -14.7727333471      -30.0088590811  TIP3      2191            0.0000000000
     20372      2291  TIP3      H1            -17.6039655109      -14.2288953523      -29.2767132414  TIP3      2191            0.0000000000
     20373      2291  TIP3      H2            -17.4361499892      -15.6840118959      -29.6740052450  TIP3      2191            0.0000000000
     20374      2292  TIP3      OH2           -22.6368514643      -15.8499486378      -26.1550107189  TIP3      2192            0.0000000000
     20375      2292  TIP3      H1            -23.2373975229      -15.2707093107      -25.6261605839  TIP3      2192            0.0000000000
     20376      2292  TIP3      H2            -23.1788951438      -16.0099660865      -26.9530861892  TIP3      2192            0.0000000000
     20377      2293  TIP3      OH2           -16.5978423437      -20.5286308621      -38.2408473282  TIP3      2193            0.0000000000
     20378      2293  TIP3      H1            -16.0018372435      -20.2918965798      -37.4871701160  TIP3      2193            0.0000000000
     20379      2293  TIP3      H2            -16.2530803882      -19.9498679582      -38.9611116918  TIP3      2193            0.0000000000
     20380      2294  TIP3      OH2           -25.7778775450      -19.5550572093      -27.0272374889  TIP3      2194            0.0000000000
     20381      2294  TIP3      H1            -25.9384670621      -18.8043961959      -26.4145073210  TIP3      2194            0.0000000000
     20382      2294  TIP3      H2            -26.6264954070      -20.0445561771      -26.9291139277  TIP3      2194            0.0000000000
     20383      2295  TIP3      OH2           -19.7601095991      -14.2467983336      -35.4250973237  TIP3      2195            0.0000000000
     20384      2295  TIP3      H1            -19.6459341774      -13.6529857745      -34.6775404488  TIP3      2195            0.0000000000
     20385      2295  TIP3      H2            -20.4224680782      -13.7913729556      -35.9733283391  TIP3      2195            0.0000000000
     20386      2296  TIP3      OH2           -24.3140444440      -14.1107418458      -24.9798407319  TIP3      2196            0.0000000000
     20387      2296  TIP3      H1            -24.4051018258      -13.6390637702      -25.8370840745  TIP3      2196            0.0000000000
     20388      2296  TIP3      H2            -25.2634005326      -14.3170341350      -24.8165234296  TIP3      2196            0.0000000000
     20389      2297  TIP3      OH2           -12.6117314455      -29.0424476918      -38.1135993801  TIP3      2197            0.0000000000
     20390      2297  TIP3      H1            -13.5533712800      -28.7768869453      -38.2104189105  TIP3      2197            0.0000000000
     20391      2297  TIP3      H2            -12.1601297710      -28.2598516773      -38.4726503096  TIP3      2197            0.0000000000
     20392      2298  TIP3      OH2           -25.3704368189      -20.1623545752      -36.4693025050  TIP3      2198            0.0000000000
     20393      2298  TIP3      H1            -25.6354314582      -19.4700444213      -37.1173860494  TIP3      2198            0.0000000000
     20394      2298  TIP3      H2            -25.5326118079      -20.9663843920      -36.9831465014  TIP3      2198            0.0000000000
     20395      2299  TIP3      OH2           -11.8967326555      -14.5806962803      -40.1385096350  TIP3      2199            0.0000000000
     20396      2299  TIP3      H1            -11.6110671377      -13.6435725523      -40.0546721919  TIP3      2199            0.0000000000
     20397      2299  TIP3      H2            -11.0396644072      -15.0568095958      -40.1521573360  TIP3      2199            0.0000000000
     20398      2300  TIP3      OH2           -28.6214967886      -17.6822618567      -27.1028009506  TIP3      2200            0.0000000000
     20399      2300  TIP3      H1            -29.5669352883      -17.6392260532      -27.3562778085  TIP3      2200            0.0000000000
     20400      2300  TIP3      H2            -28.2638463601      -18.3227685315      -27.7466627368  TIP3      2200            0.0000000000
     20401      2301  TIP3      OH2           -28.6009184297      -14.8434878642      -31.7234346065  TIP3      2201            0.0000000000
     20402      2301  TIP3      H1            -27.7809959179      -15.3300318385      -31.9480977592  TIP3      2201            0.0000000000
     20403      2301  TIP3      H2            -28.3350646651      -14.4113568996      -30.8963914689  TIP3      2201            0.0000000000
     20404      2302  TIP3      OH2           -10.7586965488      -14.4766107191      -25.5184447327  TIP3      2202            0.0000000000
     20405      2302  TIP3      H1            -10.8674395606      -15.3988307006      -25.7891044984  TIP3      2202            0.0000000000
     20406      2302  TIP3      H2            -11.6543357696      -14.3336393689      -25.1215493941  TIP3      2202            0.0000000000
     20407      2303  TIP3      OH2           -20.2131984343      -14.5867513475      -26.5943765533  TIP3      2203            0.0000000000
     20408      2303  TIP3      H1            -20.1712365380      -13.7595442890      -26.0754745521  TIP3      2203            0.0000000000
     20409      2303  TIP3      H2            -21.0948370510      -14.9678503600      -26.3687201650  TIP3      2203            0.0000000000
     20410      2304  TIP3      OH2           -19.6496818412      -10.9987428415      -37.1186579563  TIP3      2204            0.0000000000
     20411      2304  TIP3      H1            -19.4790010190      -10.7889448242      -38.0593304552  TIP3      2204            0.0000000000
     20412      2304  TIP3      H2            -19.7213002477      -10.1070486031      -36.7197614590  TIP3      2204            0.0000000000
     20413      2305  TIP3      OH2           -25.4134202280      -12.2801811745      -35.0271387572  TIP3      2205            0.0000000000
     20414      2305  TIP3      H1            -25.4975885972      -12.5565299574      -34.0917988438  TIP3      2205            0.0000000000
     20415      2305  TIP3      H2            -26.0823296472      -12.8971229101      -35.4123072336  TIP3      2205            0.0000000000
     20416      2306  TIP3      OH2           -16.4744117535      -11.7267490437      -39.8319756789  TIP3      2206            0.0000000000
     20417      2306  TIP3      H1            -15.9011306589      -12.4727623136      -40.0834929158  TIP3      2206            0.0000000000
     20418      2306  TIP3      H2            -16.3784783914      -11.7170323675      -38.8540432192  TIP3      2206            0.0000000000
     20419      2307  TIP3      OH2           -16.8177911000      -11.8459855364      -37.0751429738  TIP3      2207            0.0000000000
     20420      2307  TIP3      H1            -17.7588684691      -11.7135515955      -36.8413467276  TIP3      2207            0.0000000000
     20421      2307  TIP3      H2            -16.6310020791      -12.6981152371      -36.6517710282  TIP3      2207            0.0000000000
     20422      2308  TIP3      OH2           -14.1286403228      -22.9694524839      -24.9786923126  TIP3      2208            0.0000000000
     20423      2308  TIP3      H1            -14.7072487626      -22.4516433374      -25.5720053165  TIP3      2208            0.0000000000
     20424      2308  TIP3      H2            -13.9642131204      -23.7664586660      -25.5289148287  TIP3      2208            0.0000000000
     20425      2309  TIP3      OH2           -26.5089107199      -16.0910403708      -26.9599498481  TIP3      2209            0.0000000000
     20426      2309  TIP3      H1            -26.1047466786      -16.6241363256      -26.2469683696  TIP3      2209            0.0000000000
     20427      2309  TIP3      H2            -27.3426265980      -16.6209134510      -27.0308301582  TIP3      2209            0.0000000000
     20428      2310  TIP3      OH2           -23.6031879398      -27.4635952885      -31.0734479018  TIP3      2210            0.0000000000
     20429      2310  TIP3      H1            -24.3864568237      -27.2156599725      -31.5946682778  TIP3      2210            0.0000000000
     20430      2310  TIP3      H2            -23.9128602986      -27.1554478455      -30.1957011851  TIP3      2210            0.0000000000
     20431      2311  TIP3      OH2           -19.3550642314      -27.9823291872      -27.0091964249  TIP3      2211            0.0000000000
     20432      2311  TIP3      H1            -18.8883513290      -28.8145461981      -27.1654434821  TIP3      2211            0.0000000000
     20433      2311  TIP3      H2            -20.2167627584      -28.1589906210      -27.4250863494  TIP3      2211            0.0000000000
     20434      2312  TIP3      OH2           -16.4218054562      -24.4037174712      -26.9063197935  TIP3      2212            0.0000000000
     20435      2312  TIP3      H1            -17.1438872779      -24.5276165073      -26.2419090603  TIP3      2212            0.0000000000
     20436      2312  TIP3      H2            -16.2105691749      -23.4638532315      -26.7613683708  TIP3      2212            0.0000000000
     20437      2313  TIP3      OH2           -15.6837257671      -19.2115137706      -40.3556445414  TIP3      2213            0.0000000000
     20438      2313  TIP3      H1            -15.5081809807      -19.6262820425      -41.2245994694  TIP3      2213            0.0000000000
     20439      2313  TIP3      H2            -14.9030390428      -18.6515258239      -40.2641255504  TIP3      2213            0.0000000000
     20440      2314  TIP3      OH2           -19.6344469398      -25.5252361574      -41.0917617772  TIP3      2214            0.0000000000
     20441      2314  TIP3      H1            -20.5173143675      -25.6030895600      -40.7301283640  TIP3      2214            0.0000000000
     20442      2314  TIP3      H2            -19.1492081876      -26.1246447451      -40.4795207088  TIP3      2214            0.0000000000
     20443      2315  TIP3      OH2           -23.8076368944      -23.0974542211      -29.5580068970  TIP3      2215            0.0000000000
     20444      2315  TIP3      H1            -24.5918858894      -22.9731178544      -28.9854178095  TIP3      2215            0.0000000000
     20445      2315  TIP3      H2            -23.7609665484      -22.1898578395      -29.9548291574  TIP3      2215            0.0000000000
     20446      2316  TIP3      OH2           -23.8205005537      -22.7562165607      -34.8062024320  TIP3      2216            0.0000000000
     20447      2316  TIP3      H1            -24.5466477202      -22.1264413610      -34.9515442001  TIP3      2216            0.0000000000
     20448      2316  TIP3      H2            -23.6039233933      -23.0499072925      -35.7212194479  TIP3      2216            0.0000000000
     20449      2317  TIP3      OH2           -18.5127481605      -22.0766961001      -35.8450687311  TIP3      2217            0.0000000000
     20450      2317  TIP3      H1            -18.7673478932      -21.2780327454      -36.3717129319  TIP3      2217            0.0000000000
     20451      2317  TIP3      H2            -17.8326767289      -22.4736481841      -36.4159809975  TIP3      2217            0.0000000000
     20452      2318  TIP3      OH2           -19.9980794373      -21.9057221891      -24.3246513142  TIP3      2218            0.0000000000
     20453      2318  TIP3      H1            -20.0366316586      -22.8525304473      -24.0712642193  TIP3      2218            0.0000000000
     20454      2318  TIP3      H2            -19.1492673819      -21.6581422543      -23.9261009107  TIP3      2218            0.0000000000
     20455      2319  TIP3      OH2           -18.0676663017      -22.6916951776      -32.8536056037  TIP3      2219            0.0000000000
     20456      2319  TIP3      H1            -17.9116501734      -21.9911557010      -33.5168290380  TIP3      2219            0.0000000000
     20457      2319  TIP3      H2            -17.7081442427      -23.4657818624      -33.3585773054  TIP3      2219            0.0000000000
     20458      2320  TIP3      OH2           -26.5077276046      -23.1188024070      -28.5120048126  TIP3      2220            0.0000000000
     20459      2320  TIP3      H1            -26.2192574876      -22.6690732353      -27.7028226186  TIP3      2220            0.0000000000
     20460      2320  TIP3      H2            -26.6609650165      -24.0267574594      -28.1617879533  TIP3      2220            0.0000000000
     20461      2321  TIP3      OH2           -23.3963818921      -25.1342617252      -41.6998078636  TIP3      2221            0.0000000000
     20462      2321  TIP3      H1            -23.5780407485      -25.5620319157      -40.8374918067  TIP3      2221            0.0000000000
     20463      2321  TIP3      H2            -23.7267389675      -24.2443644761      -41.5023379900  TIP3      2221            0.0000000000
     20464      2322  TIP3      OH2           -29.0370150517      -25.8355806617      -33.9221995793  TIP3      2222            0.0000000000
     20465      2322  TIP3      H1            -28.5713903507      -25.7667762224      -33.0651638491  TIP3      2222            0.0000000000
     20466      2322  TIP3      H2            -28.5351559538      -26.5625312574      -34.3194487062  TIP3      2222            0.0000000000
     20467      2323  TIP3      OH2           -27.8190366451      -24.8260401341      -38.0307134131  TIP3      2223            0.0000000000
     20468      2323  TIP3      H1            -27.5017620775      -24.3896903208      -38.8474915661  TIP3      2223            0.0000000000
     20469      2323  TIP3      H2            -28.7348950753      -24.5178700000      -37.9778858587  TIP3      2223            0.0000000000
     20470      2324  TIP3      OH2           -18.2845778746      -21.3400622985      -28.8517734758  TIP3      2224            0.0000000000
     20471      2324  TIP3      H1            -17.6766933670      -22.0326367707      -29.2075172446  TIP3      2224            0.0000000000
     20472      2324  TIP3      H2            -18.7862700755      -21.8253927550      -28.1457131179  TIP3      2224            0.0000000000
     20473      2325  TIP3      OH2           -21.2395151550      -25.4341360745      -33.7251705936  TIP3      2225            0.0000000000
     20474      2325  TIP3      H1            -22.2169358463      -25.3404871448      -33.6492712510  TIP3      2225            0.0000000000
     20475      2325  TIP3      H2            -21.0093128385      -25.5535630681      -32.7942390038  TIP3      2225            0.0000000000
     20476      2326  TIP3      OH2           -26.5686867044      -23.9191761696      -34.8952420051  TIP3      2226            0.0000000000
     20477      2326  TIP3      H1            -27.3228620060      -23.4297038809      -35.2827227758  TIP3      2226            0.0000000000
     20478      2326  TIP3      H2            -26.1474801505      -24.3075481839      -35.6783844531  TIP3      2226            0.0000000000
     20479      2327  TIP3      OH2           -23.3406468544      -23.4856702180      -37.3861820035  TIP3      2227            0.0000000000
     20480      2327  TIP3      H1            -22.3752419120      -23.5757208224      -37.1981931173  TIP3      2227            0.0000000000
     20481      2327  TIP3      H2            -23.3728518192      -22.8412312608      -38.1099732404  TIP3      2227            0.0000000000
     20482      2328  TIP3      OH2           -16.5937747877      -26.3254864744      -30.6608501051  TIP3      2228            0.0000000000
     20483      2328  TIP3      H1            -17.3124221304      -26.2703674854      -29.9966426787  TIP3      2228            0.0000000000
     20484      2328  TIP3      H2            -17.0718942688      -26.6111554338      -31.4650494414  TIP3      2228            0.0000000000
     20485      2329  TIP3      OH2           -24.3211296241      -21.8290754795      -39.9309882337  TIP3      2229            0.0000000000
     20486      2329  TIP3      H1            -25.1191668546      -22.1539007542      -40.3862724796  TIP3      2229            0.0000000000
     20487      2329  TIP3      H2            -23.5965020884      -22.0448320496      -40.5319515268  TIP3      2229            0.0000000000
     20488      2330  TIP3      OH2           -14.0430883811      -10.4392104120      -24.0918969862  TIP3      2230            0.0000000000
     20489      2330  TIP3      H1            -13.4454697046      -10.1956450799      -24.8220879533  TIP3      2230            0.0000000000
     20490      2330  TIP3      H2            -13.4523674076      -10.5126967688      -23.3239837442  TIP3      2230            0.0000000000
     20491      2331  TIP3      OH2           -26.1008381698      -17.7693060193      -25.0040067832  TIP3      2231            0.0000000000
     20492      2331  TIP3      H1            -25.4205859723      -17.8668236269      -24.2983628731  TIP3      2231            0.0000000000
     20493      2331  TIP3      H2            -26.9209069062      -18.0064963620      -24.5031105654  TIP3      2231            0.0000000000
     20494      2332  TIP3      OH2           -20.5876378318      -22.3180564747      -32.2106584587  TIP3      2232            0.0000000000
     20495      2332  TIP3      H1            -19.6930158496      -22.5225369417      -32.5818117041  TIP3      2232            0.0000000000
     20496      2332  TIP3      H2            -20.6139894717      -22.9257654477      -31.4722577531  TIP3      2232            0.0000000000
     20497      2333  TIP3      OH2           -24.6942285310      -26.6365626336      -35.7650638692  TIP3      2233            0.0000000000
     20498      2333  TIP3      H1            -25.3193315767      -27.2813189349      -35.3705978707  TIP3      2233            0.0000000000
     20499      2333  TIP3      H2            -24.1140425731      -27.2285850432      -36.2552361770  TIP3      2233            0.0000000000
     20500      2334  TIP3      OH2           -21.4340492172      -24.2902063774      -29.6621061212  TIP3      2234            0.0000000000
     20501      2334  TIP3      H1            -22.2263836423      -23.7109027583      -29.7477974259  TIP3      2234            0.0000000000
     20502      2334  TIP3      H2            -20.8017613101      -23.7313900903      -29.1852376576  TIP3      2234            0.0000000000
     20503      2335  TIP3      OH2           -20.8847348876      -17.9307366082      -37.4655739062  TIP3      2235            0.0000000000
     20504      2335  TIP3      H1            -21.5976546249      -18.5081243518      -37.8037778497  TIP3      2235            0.0000000000
     20505      2335  TIP3      H2            -21.2738776325      -17.6555900577      -36.6064819967  TIP3      2235            0.0000000000
     20506      2336  TIP3      OH2           -13.3608942840      -18.4901449196      -28.8964560251  TIP3      2236            0.0000000000
     20507      2336  TIP3      H1            -12.9420450699      -17.9420597654      -29.5985751941  TIP3      2236            0.0000000000
     20508      2336  TIP3      H2            -14.1993142046      -18.7045132538      -29.3442736601  TIP3      2236            0.0000000000
     20509      2337  TIP3      OH2           -16.8663280042      -24.8906491593      -40.0627189906  TIP3      2237            0.0000000000
     20510      2337  TIP3      H1            -17.2705786399      -25.7139206924      -39.7116437475  TIP3      2237            0.0000000000
     20511      2337  TIP3      H2            -16.9874035080      -24.2841535002      -39.3021163190  TIP3      2237            0.0000000000
     20512      2338  TIP3      OH2           -19.6632281930      -17.3036302207      -27.0097349890  TIP3      2238            0.0000000000
     20513      2338  TIP3      H1            -19.7441403193      -17.9940846219      -26.3390651979  TIP3      2238            0.0000000000
     20514      2338  TIP3      H2            -19.9228043249      -16.5084805491      -26.5146528912  TIP3      2238            0.0000000000
     20515      2339  TIP3      OH2           -16.9330365431      -23.1436743283      -37.8082831318  TIP3      2239            0.0000000000
     20516      2339  TIP3      H1            -16.0868464228      -23.2117924051      -37.3190213968  TIP3      2239            0.0000000000
     20517      2339  TIP3      H2            -16.8994176904      -22.2172647611      -38.1267802321  TIP3      2239            0.0000000000
     20518      2340  TIP3      OH2           -26.0154465112      -18.5217355123      -32.2980468929  TIP3      2240            0.0000000000
     20519      2340  TIP3      H1            -25.3726565109      -18.6543196178      -33.0380537544  TIP3      2240            0.0000000000
     20520      2340  TIP3      H2            -25.7847164638      -19.2314499481      -31.6694622082  TIP3      2240            0.0000000000
     20521      2341  TIP3      OH2           -18.9108533909      -16.4732415080      -38.3488950307  TIP3      2241            0.0000000000
     20522      2341  TIP3      H1            -19.3338029573      -15.5841347674      -38.2618430277  TIP3      2241            0.0000000000
     20523      2341  TIP3      H2            -19.6782136661      -17.0685162389      -38.1766147790  TIP3      2241            0.0000000000
     20524      2342  TIP3      OH2           -28.3064218288      -20.4846174850      -26.9087717084  TIP3      2242            0.0000000000
     20525      2342  TIP3      H1            -28.5460969957      -20.6241736365      -25.9715113977  TIP3      2242            0.0000000000
     20526      2342  TIP3      H2            -29.2048851033      -20.3969048427      -27.2752804397  TIP3      2242            0.0000000000
     20527      2343  TIP3      OH2           -22.5781739848      -20.5738420985      -24.8840907511  TIP3      2243            0.0000000000
     20528      2343  TIP3      H1            -22.4348609113      -20.7977814052      -25.8135653758  TIP3      2243            0.0000000000
     20529      2343  TIP3      H2            -21.6819857317      -20.7302783300      -24.5292587280  TIP3      2243            0.0000000000
     20530      2344  TIP3      OH2           -16.6846343548      -15.2028284012      -26.5419298416  TIP3      2244            0.0000000000
     20531      2344  TIP3      H1            -17.4867622250      -14.8886769167      -26.9795991172  TIP3      2244            0.0000000000
     20532      2344  TIP3      H2            -16.8514375842      -14.8533639297      -25.6412077403  TIP3      2244            0.0000000000
     20533      2345  TIP3      OH2           -11.6863264773      -23.1187916074      -37.8984670785  TIP3      2245            0.0000000000
     20534      2345  TIP3      H1            -11.9733657966      -23.2634674225      -38.8272531454  TIP3      2245            0.0000000000
     20535      2345  TIP3      H2            -11.5278855546      -22.1492054243      -37.9516805750  TIP3      2245            0.0000000000
     20536      2346  TIP3      OH2           -11.1543132905      -17.3966246818      -25.7174120131  TIP3      2246            0.0000000000
     20537      2346  TIP3      H1            -12.0522220487      -17.1104750998      -26.0124578443  TIP3      2246            0.0000000000
     20538      2346  TIP3      H2            -10.7074671090      -17.5418304444      -26.5814628094  TIP3      2246            0.0000000000
     20539      2347  TIP3      OH2           -13.3598152879      -14.2819832530      -37.8443621902  TIP3      2247            0.0000000000
     20540      2347  TIP3      H1            -13.7399762705      -15.1455389839      -37.6659462077  TIP3      2247            0.0000000000
     20541      2347  TIP3      H2            -12.7880566566      -14.4430846734      -38.6168349626  TIP3      2247            0.0000000000
     20542      2348  TIP3      OH2           -15.8280434345      -19.5995790846      -30.9958578681  TIP3      2248            0.0000000000
     20543      2348  TIP3      H1            -16.7846377909      -19.7231871803      -31.1641689851  TIP3      2248            0.0000000000
     20544      2348  TIP3      H2            -15.4486296176      -20.3580950120      -31.4991771423  TIP3      2248            0.0000000000
     20545      2349  TIP3      OH2           -23.4254533581      -15.0117823054      -34.6875222088  TIP3      2249            0.0000000000
     20546      2349  TIP3      H1            -23.1695434464      -14.1432195228      -35.0523027011  TIP3      2249            0.0000000000
     20547      2349  TIP3      H2            -24.3772431705      -15.0232213259      -34.8754223241  TIP3      2249            0.0000000000
     20548      2350  TIP3      OH2           -27.3239389528      -20.7522542945      -40.1033649090  TIP3      2250            0.0000000000
     20549      2350  TIP3      H1            -26.8993952163      -19.9400131991      -39.7906551290  TIP3      2250            0.0000000000
     20550      2350  TIP3      H2            -28.2369247604      -20.4106337764      -40.1369548621  TIP3      2250            0.0000000000
     20551      2351  TIP3      OH2           -22.3091664943      -17.4054896020      -35.1575558330  TIP3      2251            0.0000000000
     20552      2351  TIP3      H1            -22.6179896662      -16.4780545571      -35.0605921113  TIP3      2251            0.0000000000
     20553      2351  TIP3      H2            -22.9050318057      -17.9072894473      -34.5721141456  TIP3      2251            0.0000000000
     20554      2352  TIP3      OH2           -21.5584545619      -13.0733144630      -28.4066481586  TIP3      2252            0.0000000000
     20555      2352  TIP3      H1            -20.8875187062      -12.5097712853      -28.8606502579  TIP3      2252            0.0000000000
     20556      2352  TIP3      H2            -20.9850108234      -13.5023842489      -27.7376628347  TIP3      2252            0.0000000000
     20557      2353  TIP3      OH2           -22.8031570279      -12.3980617206      -35.7289647577  TIP3      2253            0.0000000000
     20558      2353  TIP3      H1            -23.7596024648      -12.4079305534      -35.5189070319  TIP3      2253            0.0000000000
     20559      2353  TIP3      H2            -22.6157661240      -11.5153614178      -35.3442238496  TIP3      2253            0.0000000000
     20560      2354  TIP3      OH2           -18.1853514695      -17.2591974048      -29.2856378398  TIP3      2254            0.0000000000
     20561      2354  TIP3      H1            -18.5846432381      -17.4008685943      -28.3937732651  TIP3      2254            0.0000000000
     20562      2354  TIP3      H2            -17.7263320760      -18.1008344367      -29.4538386871  TIP3      2254            0.0000000000
     20563      2355  TIP3      OH2           -15.6568324843      -16.0775678553      -39.7355617855  TIP3      2255            0.0000000000
     20564      2355  TIP3      H1            -15.8173272768      -16.3251208523      -38.8032957026  TIP3      2255            0.0000000000
     20565      2355  TIP3      H2            -16.3678866608      -16.5757175269      -40.1640520485  TIP3      2255            0.0000000000
     20566      2356  TIP3      OH2           -14.9397641483      -12.8547667692      -26.7814745227  TIP3      2256            0.0000000000
     20567      2356  TIP3      H1            -15.8444221666      -13.2161828635      -26.8704908355  TIP3      2256            0.0000000000
     20568      2356  TIP3      H2            -14.9933684944      -12.0746109977      -27.3757948738  TIP3      2256            0.0000000000
     20569      2357  TIP3      OH2           -11.3108221601      -11.8999048796      -39.7200854903  TIP3      2257            0.0000000000
     20570      2357  TIP3      H1            -10.6942697118      -11.5541395410      -40.3941718421  TIP3      2257            0.0000000000
     20571      2357  TIP3      H2            -11.6776690775      -11.0730357826      -39.3386091505  TIP3      2257            0.0000000000
     20572      2358  TIP3      OH2           -26.9181546560      -25.4645348909      -27.1242150855  TIP3      2258            0.0000000000
     20573      2358  TIP3      H1            -27.5774342391      -25.1648989991      -26.4841737621  TIP3      2258            0.0000000000
     20574      2358  TIP3      H2            -26.6517662827      -26.3141329754      -26.7005778437  TIP3      2258            0.0000000000
     20575      2359  TIP3      OH2           -14.8748417961      -17.6083425866      -37.4191145990  TIP3      2259            0.0000000000
     20576      2359  TIP3      H1            -14.9282486721      -18.4561685510      -36.9229590468  TIP3      2259            0.0000000000
     20577      2359  TIP3      H2            -13.9012579542      -17.4949103804      -37.4925822899  TIP3      2259            0.0000000000
     20578      2360  TIP3      OH2           -27.1337619340      -13.5228617410      -29.1494240112  TIP3      2260            0.0000000000
     20579      2360  TIP3      H1            -26.9740707315      -14.3464795102      -28.6731552509  TIP3      2260            0.0000000000
     20580      2360  TIP3      H2            -26.4449475169      -12.9584187993      -28.7363301366  TIP3      2260            0.0000000000
     20581      2361  TIP3      OH2           -22.6948113915      -15.5611760641      -39.2458960411  TIP3      2261            0.0000000000
     20582      2361  TIP3      H1            -22.0023012525      -16.0099658663      -38.7355921711  TIP3      2261            0.0000000000
     20583      2361  TIP3      H2            -22.6710996564      -14.6521447218      -38.8598616709  TIP3      2261            0.0000000000
     20584      2362  TIP3      OH2           -26.3549566296      -18.3883095977      -38.3627336525  TIP3      2262            0.0000000000
     20585      2362  TIP3      H1            -26.9929863617      -17.8568862989      -37.8366536800  TIP3      2262            0.0000000000
     20586      2362  TIP3      H2            -25.8582462857      -17.7053048103      -38.8461756672  TIP3      2262            0.0000000000
     20587      2363  TIP3      OH2           -18.1246959997      -25.9199576929      -28.3553833111  TIP3      2263            0.0000000000
     20588      2363  TIP3      H1            -17.4595995301      -25.4740195699      -27.7993172224  TIP3      2263            0.0000000000
     20589      2363  TIP3      H2            -18.4991171039      -26.5518578979      -27.6983591754  TIP3      2263            0.0000000000
     20590      2364  TIP3      OH2           -17.4361697843      -25.4811879288      -36.4971744966  TIP3      2264            0.0000000000
     20591      2364  TIP3      H1            -17.5772014933      -26.0762369023      -37.2612118298  TIP3      2264            0.0000000000
     20592      2364  TIP3      H2            -17.4678246432      -24.6145508427      -36.9521072364  TIP3      2264            0.0000000000
     20593      2365  TIP3      OH2           -19.9970904420      -13.9714432939      -38.4019964980  TIP3      2265            0.0000000000
     20594      2365  TIP3      H1            -20.7909813357      -13.4433410242      -38.1809629577  TIP3      2265            0.0000000000
     20595      2365  TIP3      H2            -19.7648204332      -13.6243657835      -39.2838580429  TIP3      2265            0.0000000000
     20596      2366  TIP3      OH2           -20.9408071982      -24.0389492615      -36.3214055717  TIP3      2266            0.0000000000
     20597      2366  TIP3      H1            -20.1328964896      -23.5240373655      -36.1673451921  TIP3      2266            0.0000000000
     20598      2366  TIP3      H2            -20.9637282306      -24.6385618964      -35.5443060227  TIP3      2266            0.0000000000
     20599      2367  TIP3      OH2           -19.3512002889      -23.0007353955      -27.0475070321  TIP3      2267            0.0000000000
     20600      2367  TIP3      H1            -19.4935698160      -22.6614340442      -26.1413332445  TIP3      2267            0.0000000000
     20601      2367  TIP3      H2            -19.3845341471      -23.9685223555      -26.9343711167  TIP3      2267            0.0000000000
     20602      2368  TIP3      OH2           -19.4187094656      -27.0350592382      -35.3314312123  TIP3      2268            0.0000000000
     20603      2368  TIP3      H1            -19.4315422455      -26.7076318132      -34.4105214245  TIP3      2268            0.0000000000
     20604      2368  TIP3      H2            -18.6632610459      -26.5401770310      -35.7143264135  TIP3      2268            0.0000000000
     20605      2369  TIP3      OH2           -22.5514558220      -13.0024528602      -38.4417168267  TIP3      2269            0.0000000000
     20606      2369  TIP3      H1            -22.2962413613      -12.2538323560      -39.0347511406  TIP3      2269            0.0000000000
     20607      2369  TIP3      H2            -22.8568223835      -12.5109049116      -37.6508124241  TIP3      2269            0.0000000000
     20608      2370  TIP3      OH2           -23.9690415716      -25.4787222350      -39.1656956872  TIP3      2270            0.0000000000
     20609      2370  TIP3      H1            -24.0731551560      -24.8957278961      -38.3874319982  TIP3      2270            0.0000000000
     20610      2370  TIP3      H2            -23.2732574408      -26.0675133731      -38.8206710084  TIP3      2270            0.0000000000
     20611      2371  TIP3      OH2           -13.9243043702      -25.4115757222      -26.1760047191  TIP3      2271            0.0000000000
     20612      2371  TIP3      H1            -14.8932286080      -25.2914238937      -26.2705130473  TIP3      2271            0.0000000000
     20613      2371  TIP3      H2            -13.7524746755      -25.7498512823      -27.0872698185  TIP3      2271            0.0000000000
     20614      2372  TIP3      OH2           -14.9607456000      -21.8770330167      -32.2834019008  TIP3      2272            0.0000000000
     20615      2372  TIP3      H1            -15.5527756546      -22.6459828986      -32.2033529560  TIP3      2272            0.0000000000
     20616      2372  TIP3      H2            -14.1627560836      -22.2244219431      -31.8186298392  TIP3      2272            0.0000000000
     20617      2373  TIP3      OH2           -25.5611542939      -15.5406683973      -40.0271494981  TIP3      2273            0.0000000000
     20618      2373  TIP3      H1            -24.7308582080      -15.3585224061      -39.5564729463  TIP3      2273            0.0000000000
     20619      2373  TIP3      H2            -25.2692355034      -16.2859488059      -40.5857689526  TIP3      2273            0.0000000000
     20620      2374  TIP3      OH2           -27.4824088352      -23.5274512345      -40.5948802749  TIP3      2274            0.0000000000
     20621      2374  TIP3      H1            -27.3758578020      -22.5623223121      -40.4201778166  TIP3      2274            0.0000000000
     20622      2374  TIP3      H2            -28.4440010302      -23.5878621920      -40.7358186121  TIP3      2274            0.0000000000
     20623      2375  TIP3      OH2           -14.0505725060      -12.2815568514      -30.7331740093  TIP3      2275            0.0000000000
     20624      2375  TIP3      H1            -13.9475054662      -11.5420062577      -31.3682305209  TIP3      2275            0.0000000000
     20625      2375  TIP3      H2            -13.1171089537      -12.5673928616      -30.6814163645  TIP3      2275            0.0000000000
     20626      2376  TIP3      OH2           -26.3711437101      -28.0513728235      -32.1043723793  TIP3      2276            0.0000000000
     20627      2376  TIP3      H1            -26.1879330138      -28.2564051297      -33.0472150569  TIP3      2276            0.0000000000
     20628      2376  TIP3      H2            -26.6371672984      -28.9554152608      -31.8076098509  TIP3      2276            0.0000000000
     20629      2377  TIP3      OH2           -27.3220885269      -14.1361833531      -35.7180598343  TIP3      2277            0.0000000000
     20630      2377  TIP3      H1            -28.2708837721      -14.2123276668      -35.5034255596  TIP3      2277            0.0000000000
     20631      2377  TIP3      H2            -27.4011273668      -13.7564097988      -36.6188998587  TIP3      2277            0.0000000000
     20632      2378  TIP3      OH2           -28.0159279571      -11.8026583903      -24.0245157760  TIP3      2278            0.0000000000
     20633      2378  TIP3      H1            -27.4340908156      -12.0498844878      -23.2692969262  TIP3      2278            0.0000000000
     20634      2378  TIP3      H2            -28.0592873332      -12.6551623981      -24.4826038854  TIP3      2278            0.0000000000
     20635      2379  TIP3      OH2           -23.5410560828      -12.4455109090      -23.1217762112  TIP3      2279            0.0000000000
     20636      2379  TIP3      H1            -23.1924518559      -13.0596066066      -22.4568451036  TIP3      2279            0.0000000000
     20637      2379  TIP3      H2            -23.5679036947      -13.0185485579      -23.9206778949  TIP3      2279            0.0000000000
     20638      2380  TIP3      OH2           -19.8675300513      -13.2131268895      -41.0889866945  TIP3      2280            0.0000000000
     20639      2380  TIP3      H1            -20.1344385415      -14.1110621445      -41.3194710612  TIP3      2280            0.0000000000
     20640      2380  TIP3      H2            -19.5095170786      -12.9327861247      -41.9450703672  TIP3      2280            0.0000000000
     20641      2381  TIP3      OH2           -17.2206190264      -13.9980484308      -24.0632423476  TIP3      2281            0.0000000000
     20642      2381  TIP3      H1            -17.5533098729      -14.8275536165      -23.6522299394  TIP3      2281            0.0000000000
     20643      2381  TIP3      H2            -16.3407835032      -13.8877663399      -23.6204357067  TIP3      2281            0.0000000000
     20644      2382  TIP3      OH2           -14.4644142251      -13.8961734157      -41.1717289692  TIP3      2282            0.0000000000
     20645      2382  TIP3      H1            -14.9855181972      -14.3810060158      -40.5026724804  TIP3      2282            0.0000000000
     20646      2382  TIP3      H2            -13.5778405286      -14.2084091096      -40.9029564027  TIP3      2282            0.0000000000
     20647      2383  TIP3      OH2           -28.1264984515      -18.4331928565      -23.5693178971  TIP3      2283            0.0000000000
     20648      2383  TIP3      H1            -27.7977407015      -19.3581661659      -23.6942743795  TIP3      2283            0.0000000000
     20649      2383  TIP3      H2            -29.0848041030      -18.4974994968      -23.8001886056  TIP3      2283            0.0000000000
     20650      2384  TIP3      OH2           -24.0243401990      -17.5086140161      -41.0088664650  TIP3      2284            0.0000000000
     20651      2384  TIP3      H1            -23.3495845946      -17.7079275051      -40.3337336653  TIP3      2284            0.0000000000
     20652      2384  TIP3      H2            -23.7235799204      -18.1163477090      -41.7129311380  TIP3      2284            0.0000000000
     20653      2385  TIP3      OH2           -21.6755605167      -17.9511921082      -24.7779094022  TIP3      2285            0.0000000000
     20654      2385  TIP3      H1            -21.9654356541      -17.1911815708      -25.3323859161  TIP3      2285            0.0000000000
     20655      2385  TIP3      H2            -21.9798490716      -18.7532514217      -25.2445684086  TIP3      2285            0.0000000000
     20656      2386  TIP3      OH2           -16.0787227464      -17.9934785111      -26.5778587350  TIP3      2286            0.0000000000
     20657      2386  TIP3      H1            -15.2448511500      -17.4733578927      -26.6079494178  TIP3      2286            0.0000000000
     20658      2386  TIP3      H2            -16.6834766570      -17.2407540991      -26.4379929743  TIP3      2286            0.0000000000
     20659      2387  TIP3      OH2           -26.8830487606      -20.7825400695      -23.9151718296  TIP3      2287            0.0000000000
     20660      2387  TIP3      H1            -25.9395647410      -20.8446656057      -24.1034645660  TIP3      2287            0.0000000000
     20661      2387  TIP3      H2            -27.0920577595      -21.6847915279      -23.5896963724  TIP3      2287            0.0000000000
     20662      2388  TIP3      OH2           -22.7252158626      -19.4038891423      -38.9249097717  TIP3      2288            0.0000000000
     20663      2388  TIP3      H1            -23.3736620722      -20.0040625299      -38.5377634290  TIP3      2288            0.0000000000
     20664      2388  TIP3      H2            -22.2348435469      -20.0484133152      -39.4780885507  TIP3      2288            0.0000000000
     20665      2389  TIP3      OH2           -24.0718849149      -21.5678699208      -27.2821757746  TIP3      2289            0.0000000000
     20666      2389  TIP3      H1            -24.6045294443      -20.8002150388      -26.9731132004  TIP3      2289            0.0000000000
     20667      2389  TIP3      H2            -23.2669489584      -21.1462061696      -27.6321059048  TIP3      2289            0.0000000000
     20668      2390  TIP3      OH2           -21.6293026311      -21.2909620256      -40.6788307555  TIP3      2290            0.0000000000
     20669      2390  TIP3      H1            -21.6759938326      -21.5331391928      -41.6130423963  TIP3      2290            0.0000000000
     20670      2390  TIP3      H2            -20.6749045999      -21.4237737453      -40.4652123550  TIP3      2290            0.0000000000
     20671      2391  TIP3      OH2           -18.2443845508      -18.8755150729      -23.4043541445  TIP3      2291            0.0000000000
     20672      2391  TIP3      H1            -17.5472961650      -19.1849491868      -24.0008280410  TIP3      2291            0.0000000000
     20673      2391  TIP3      H2            -18.5720157492      -19.6781176857      -22.9953065901  TIP3      2291            0.0000000000
     20674      2392  TIP3      OH2           -13.1917455130      -18.9299188240      -41.6405354670  TIP3      2292            0.0000000000
     20675      2392  TIP3      H1            -13.1977389673      -19.0021098299      -42.6129197964  TIP3      2292            0.0000000000
     20676      2392  TIP3      H2            -13.2545081931      -17.9770878176      -41.5216948178  TIP3      2292            0.0000000000
     20677      2393  TIP3      OH2           -22.6759322042      -23.9430969708      -25.8406277341  TIP3      2293            0.0000000000
     20678      2393  TIP3      H1            -22.5916793680      -24.5627498769      -26.5907539311  TIP3      2293            0.0000000000
     20679      2393  TIP3      H2            -22.9832500966      -23.1327757715      -26.2901599189  TIP3      2293            0.0000000000
     20680      2394  TIP3      OH2           -22.5019468263      -26.0124571945      -27.8967407008  TIP3      2294            0.0000000000
     20681      2394  TIP3      H1            -21.9703972506      -25.4871076833      -28.5476544573  TIP3      2294            0.0000000000
     20682      2394  TIP3      H2            -23.3991595077      -25.9146204228      -28.2718824918  TIP3      2294            0.0000000000
     20683      2395  TIP3      OH2           -21.4327089958      -20.1455296634      -27.9082702585  TIP3      2295            0.0000000000
     20684      2395  TIP3      H1            -20.6745808603      -19.9406149197      -28.4734286908  TIP3      2295            0.0000000000
     20685      2395  TIP3      H2            -22.0571582094      -19.4700514150      -28.2458350243  TIP3      2295            0.0000000000
     20686      2396  TIP3      OH2           -17.2807600417      -22.3825265929      -22.6164217481  TIP3      2296            0.0000000000
     20687      2396  TIP3      H1            -17.3040209393      -22.5842341770      -21.6521446163  TIP3      2296            0.0000000000
     20688      2396  TIP3      H2            -16.3183692455      -22.3931442794      -22.7831186479  TIP3      2296            0.0000000000
     20689      2397  TIP3      OH2           -15.3030358362      -19.6862092978      -24.7216303255  TIP3      2297            0.0000000000
     20690      2397  TIP3      H1            -15.5349883349      -19.1273080312      -25.4957894143  TIP3      2297            0.0000000000
     20691      2397  TIP3      H2            -14.3332473863      -19.7975412452      -24.8490810274  TIP3      2297            0.0000000000
     20692      2398  TIP3      OH2           -24.1464830780      -23.2830349780      -23.5682064320  TIP3      2298            0.0000000000
     20693      2398  TIP3      H1            -24.9482900935      -23.8306743849      -23.6186217185  TIP3      2298            0.0000000000
     20694      2398  TIP3      H2            -23.6694820353      -23.5422063294      -24.3880931593  TIP3      2298            0.0000000000
     20695      2399  TIP3      OH2           -22.0899269039      -28.6025145380      -27.9053551743  TIP3      2299            0.0000000000
     20696      2399  TIP3      H1            -21.9895696190      -27.6212509850      -27.9307896934  TIP3      2299            0.0000000000
     20697      2399  TIP3      H2            -23.0529877427      -28.6440041156      -27.9490926717  TIP3      2299            0.0000000000
     20698      2400  TIP3      OH2           -20.9093752508      -24.3732678763      -23.6760038167  TIP3      2300            0.0000000000
     20699      2400  TIP3      H1            -21.6217629604      -24.5385686039      -23.0465968369  TIP3      2300            0.0000000000
     20700      2400  TIP3      H2            -21.4076683615      -24.3839617141      -24.5184171157  TIP3      2300            0.0000000000
     20701      2401  TIP3      OH2           -18.3583042094      -24.8473013574      -24.8229921367  TIP3      2301            0.0000000000
     20702      2401  TIP3      H1            -19.1594662922      -24.9211298201      -24.2819582906  TIP3      2301            0.0000000000
     20703      2401  TIP3      H2            -17.7560840547      -25.4042169100      -24.2785332579  TIP3      2301            0.0000000000
     20704      2402  TIP3      OH2           -17.0038353037      -26.6912467755      -23.2009125205  TIP3      2302            0.0000000000
     20705      2402  TIP3      H1            -16.8200535705      -27.6605398618      -23.1850095701  TIP3      2302            0.0000000000
     20706      2402  TIP3      H2            -16.5920017332      -26.4000365636      -22.3784577433  TIP3      2302            0.0000000000
     20707      2403  TIP3      OH2           -26.4182196520      -25.1463510112      -23.9429749726  TIP3      2303            0.0000000000
     20708      2403  TIP3      H1            -26.6224375856      -25.9706959542      -24.4098128176  TIP3      2303            0.0000000000
     20709      2403  TIP3      H2            -26.4233141851      -25.4662754103      -23.0185724896  TIP3      2303            0.0000000000
     20710      2404  TIP3      OH2           -22.2178757266      -28.4962237788      -25.0425838485  TIP3      2304            0.0000000000
     20711      2404  TIP3      H1            -21.7383301248      -29.3356462429      -25.1661842414  TIP3      2304            0.0000000000
     20712      2404  TIP3      H2            -22.3086166208      -28.2091087527      -25.9626994999  TIP3      2304            0.0000000000
     20713      2405  TIP3      OH2           -21.8376831527      -10.9476076218      -40.0765855299  TIP3      2305            0.0000000000
     20714      2405  TIP3      H1            -20.8873301696      -10.7923098134      -39.9017239660  TIP3      2305            0.0000000000
     20715      2405  TIP3      H2            -21.8420806571      -10.8935356476      -41.0572752588  TIP3      2305            0.0000000000
     20716      2406  TIP3      OH2           -28.2503976783      -15.8957961376      -40.6781878033  TIP3      2306            0.0000000000
     20717      2406  TIP3      H1            -27.3371771383      -15.5322574494      -40.6386851809  TIP3      2306            0.0000000000
     20718      2406  TIP3      H2            -28.2854948722      -16.2075810639      -41.6032249734  TIP3      2306            0.0000000000
     20719      2407  TIP3      OH2            29.0046688997      -10.9280274041      -35.8090928250  TIP3      2307            0.0000000000
     20720      2407  TIP3      H1             28.1790607732      -10.8226316328      -35.2919331362  TIP3      2307            0.0000000000
     20721      2407  TIP3      H2             29.6575996842      -11.1462980512      -35.1275160622  TIP3      2307            0.0000000000
     20722      2408  TIP3      OH2           -28.3905748429      -12.1705256951      -33.6830755503  TIP3      2308            0.0000000000
     20723      2408  TIP3      H1            -29.1459925364      -12.7913280140      -33.6398419707  TIP3      2308            0.0000000000
     20724      2408  TIP3      H2            -28.0599207182      -12.1856367958      -32.7715287158  TIP3      2308            0.0000000000
     20725      2409  TIP3      OH2           -11.2806217305      -12.0987758585      -30.9028069620  TIP3      2309            0.0000000000
     20726      2409  TIP3      H1            -10.8744662578      -11.9561057653      -30.0353481186  TIP3      2309            0.0000000000
     20727      2409  TIP3      H2            -11.1721139704      -11.2428562783      -31.3403006966  TIP3      2309            0.0000000000
     20728      2410  TIP3      OH2           -11.5223495465      -12.3727840099      -27.6300456553  TIP3      2310            0.0000000000
     20729      2410  TIP3      H1            -11.8841215622      -13.1122806758      -28.1716981708  TIP3      2310            0.0000000000
     20730      2410  TIP3      H2            -11.2962596475      -12.8698015168      -26.8248857645  TIP3      2310            0.0000000000
     20731      2411  TIP3      OH2           -12.8196106038      -16.6166814711      -22.8245577493  TIP3      2311            0.0000000000
     20732      2411  TIP3      H1            -13.7585883313      -16.9038486795      -22.7658612500  TIP3      2311            0.0000000000
     20733      2411  TIP3      H2            -12.9030664456      -15.7525355929      -22.3984686514  TIP3      2311            0.0000000000
     20734      2412  TIP3      OH2           -12.1702257076      -17.9580907366      -37.6522706778  TIP3      2312            0.0000000000
     20735      2412  TIP3      H1            -11.2501444840      -17.6449097514      -37.4995377403  TIP3      2312            0.0000000000
     20736      2412  TIP3      H2            -12.2173717831      -18.6650927064      -36.9720139904  TIP3      2312            0.0000000000
     20737      2413  TIP3      OH2           -11.7948472489      -19.7863196692      -35.5814677355  TIP3      2313            0.0000000000
     20738      2413  TIP3      H1            -12.3994592957      -20.4108403038      -35.1226392887  TIP3      2313            0.0000000000
     20739      2413  TIP3      H2            -11.1549884264      -19.5837986131      -34.8691271857  TIP3      2313            0.0000000000
     20740      2414  TIP3      OH2           -11.9465760711      -17.3994461091      -30.8775918385  TIP3      2314            0.0000000000
     20741      2414  TIP3      H1            -11.2764521061      -18.0625524388      -31.1198380337  TIP3      2314            0.0000000000
     20742      2414  TIP3      H2            -11.4662754017      -16.5682632671      -31.0776716032  TIP3      2314            0.0000000000
     20743      2415  TIP3      OH2           -13.0946605652      -14.5528513903      -28.4439450650  TIP3      2315            0.0000000000
     20744      2415  TIP3      H1            -13.7633759790      -13.9707542282      -28.0369647291  TIP3      2315            0.0000000000
     20745      2415  TIP3      H2            -13.5635825842      -14.8984015376      -29.2383540317  TIP3      2315            0.0000000000
     20746      2416  TIP3      OH2           -11.3805599148      -20.6019579924      -38.9541510454  TIP3      2316            0.0000000000
     20747      2416  TIP3      H1            -12.1680461173      -20.7613474835      -39.4962240727  TIP3      2316            0.0000000000
     20748      2416  TIP3      H2            -11.5557436974      -19.7251224493      -38.5666664605  TIP3      2316            0.0000000000
     20749      2417  TIP3      OH2           -12.4716969908      -23.0366396018      -40.7576862239  TIP3      2317            0.0000000000
     20750      2417  TIP3      H1            -12.5573655493      -22.6592479482      -41.6522361647  TIP3      2317            0.0000000000
     20751      2417  TIP3      H2            -12.9166917422      -23.9016479152      -40.9097842304  TIP3      2317            0.0000000000
     20752      2418  TIP3      OH2           -13.4100635316      -21.6707095315      -34.6090745130  TIP3      2318            0.0000000000
     20753      2418  TIP3      H1            -13.9343421077      -22.4378829521      -34.8821509380  TIP3      2318            0.0000000000
     20754      2418  TIP3      H2            -13.7794274007      -21.5270059781      -33.7115057528  TIP3      2318            0.0000000000
     20755      2419  TIP3      OH2           -28.7522535108      -19.6059701099      -30.1855344516  TIP3      2319            0.0000000000
     20756      2419  TIP3      H1            -28.7567218223      -19.7665185320      -31.1497050303  TIP3      2319            0.0000000000
     20757      2419  TIP3      H2            -27.8429952508      -19.9062555461      -29.9602541502  TIP3      2319            0.0000000000
     20758      2420  TIP3      OH2           -12.6865458430      -19.6964205936      -25.3892603617  TIP3      2320            0.0000000000
     20759      2420  TIP3      H1            -12.1553839457      -20.5185603610      -25.4300524882  TIP3      2320            0.0000000000
     20760      2420  TIP3      H2            -12.0085942473      -19.0106398894      -25.5367267385  TIP3      2320            0.0000000000
     20761      2421  TIP3      OH2           -11.5104846029      -22.2147058711      -25.2315339080  TIP3      2321            0.0000000000
     20762      2421  TIP3      H1            -12.4146234236      -22.5795929835      -25.1786275365  TIP3      2321            0.0000000000
     20763      2421  TIP3      H2            -10.9846611572      -23.0448164357      -25.1176961323  TIP3      2321            0.0000000000
     20764      2422  TIP3      OH2           -13.8335233789      -25.2955680185      -41.2919672827  TIP3      2322            0.0000000000
     20765      2422  TIP3      H1            -13.3082161969      -26.0794331671      -41.0709407461  TIP3      2322            0.0000000000
     20766      2422  TIP3      H2            -14.7494066688      -25.5913234889      -41.1332449486  TIP3      2322            0.0000000000
     20767      2423  TIP3      OH2           -14.6098517516      -23.5882083443      -36.3081218273  TIP3      2323            0.0000000000
     20768      2423  TIP3      H1            -14.3007424990      -24.5111243507      -36.1764255958  TIP3      2323            0.0000000000
     20769      2423  TIP3      H2            -13.8133344884      -23.1794712405      -36.6765058228  TIP3      2323            0.0000000000
     20770      2424  TIP3      OH2           -13.1712848886      -23.2797067463      -30.8955443614  TIP3      2324            0.0000000000
     20771      2424  TIP3      H1            -12.1921729193      -23.2157767949      -30.7733101947  TIP3      2324            0.0000000000
     20772      2424  TIP3      H2            -13.4286807373      -23.2842362160      -29.9545348221  TIP3      2324            0.0000000000
     20773      2425  TIP3      OH2           -13.1751592325      -22.6320820928      -28.2023151015  TIP3      2325            0.0000000000
     20774      2425  TIP3      H1            -14.0051094522      -22.2956553046      -27.8128520407  TIP3      2325            0.0000000000
     20775      2425  TIP3      H2            -12.7239442294      -21.8119016511      -28.5005445385  TIP3      2325            0.0000000000
     20776      2426  TIP3      OH2           -29.1156226323      -24.1991064426      -24.8934948955  TIP3      2326            0.0000000000
     20777      2426  TIP3      H1            -28.1830404700      -23.9559261168      -24.9921619179  TIP3      2326            0.0000000000
     20778      2426  TIP3      H2            -29.1235655626      -24.4168229793      -23.9428671034  TIP3      2326            0.0000000000
     20779      2427  TIP3      OH2           -13.5156393966      -26.1631676285      -35.9736662472  TIP3      2327            0.0000000000
     20780      2427  TIP3      H1            -13.1356789721      -26.8025357206      -35.3429479243  TIP3      2327            0.0000000000
     20781      2427  TIP3      H2            -13.9826450847      -26.7382027919      -36.6045165508  TIP3      2327            0.0000000000
     20782      2428  TIP3      OH2           -27.9108857510      -25.9513173953      -31.3891255325  TIP3      2328            0.0000000000
     20783      2428  TIP3      H1            -27.3899850310      -26.7481157189      -31.6441643871  TIP3      2328            0.0000000000
     20784      2428  TIP3      H2            -27.2198371579      -25.2688023632      -31.3911390967  TIP3      2328            0.0000000000
     20785      2429  TIP3      OH2           -29.1589937337      -22.6069872301      -30.3775566670  TIP3      2329            0.0000000000
     20786      2429  TIP3      H1            -28.3375449603      -22.9027920354      -30.8043943787  TIP3      2329            0.0000000000
     20787      2429  TIP3      H2            -28.8028197168      -21.9497347138      -29.7633752024  TIP3      2329            0.0000000000
     20788      2430  TIP3      OH2           -11.3194036983      -26.7443227437      -24.2429574412  TIP3      2330            0.0000000000
     20789      2430  TIP3      H1            -12.1143409702      -26.6067453402      -23.7000708336  TIP3      2330            0.0000000000
     20790      2430  TIP3      H2            -11.6902817943      -27.1147790004      -25.0643977479  TIP3      2330            0.0000000000
     20791      2431  TIP3      OH2           -11.3422052380      -26.8419294560      -39.9799121161  TIP3      2331            0.0000000000
     20792      2431  TIP3      H1            -11.3743714448      -26.8806951955      -40.9582049991  TIP3      2331            0.0000000000
     20793      2431  TIP3      H2            -10.7672833562      -26.0644823772      -39.8098970587  TIP3      2331            0.0000000000
     20794      2432  TIP3      OH2           -28.6228679088      -27.4546885725      -36.3027772415  TIP3      2332            0.0000000000
     20795      2432  TIP3      H1            -29.5994419336      -27.3738851551      -36.2874685932  TIP3      2332            0.0000000000
     20796      2432  TIP3      H2            -28.3354831228      -26.5895218730      -36.6451702829  TIP3      2332            0.0000000000
     20797      2433  TIP3      OH2           -14.2266491358      -11.7944481501      -34.4025817707  TIP3      2333            0.0000000000
     20798      2433  TIP3      H1            -13.5596713182      -11.7384532002      -35.1187120866  TIP3      2333            0.0000000000
     20799      2433  TIP3      H2            -13.9583335794      -11.0794279270      -33.8035341638  TIP3      2333            0.0000000000
     20800      2434  TIP3      OH2           -29.0808090435      -28.2138015671      -28.4843732233  TIP3      2334            0.0000000000
     20801      2434  TIP3      H1            -30.0250372883      -28.4423150570      -28.4982275553  TIP3      2334            0.0000000000
     20802      2434  TIP3      H2            -29.0521367898      -27.3813068400      -28.9846146899  TIP3      2334            0.0000000000
     20803      2435  TIP3      OH2           -26.9132881546      -14.8021871727      -24.4046102208  TIP3      2335            0.0000000000
     20804      2435  TIP3      H1            -27.3345654914      -15.2769889764      -25.1415741593  TIP3      2335            0.0000000000
     20805      2435  TIP3      H2            -27.1220303109      -15.3819144739      -23.6613830041  TIP3      2335            0.0000000000
     20806      2436  TIP3      OH2           -24.3272160446      -13.3212490278      -27.7062924028  TIP3      2336            0.0000000000
     20807      2436  TIP3      H1            -24.3210914887      -12.4231205072      -28.1112563214  TIP3      2336            0.0000000000
     20808      2436  TIP3      H2            -23.3976250595      -13.5686920279      -27.8722550815  TIP3      2336            0.0000000000
     20809      2437  TIP3      OH2           -20.1404541610      -12.1090645322      -25.2667853682  TIP3      2337            0.0000000000
     20810      2437  TIP3      H1            -19.9657586520      -12.3883954980      -24.3376008805  TIP3      2337            0.0000000000
     20811      2437  TIP3      H2            -19.2658727049      -11.7424676269      -25.5360181278  TIP3      2337            0.0000000000
     20812      2438  TIP3      OH2           -17.8738540478      -10.6667565592      -25.9064852369  TIP3      2338            0.0000000000
     20813      2438  TIP3      H1            -17.0927518245      -10.8908095384      -26.4419839118  TIP3      2338            0.0000000000
     20814      2438  TIP3      H2            -17.4657512827      -10.3903094750      -25.0549661177  TIP3      2338            0.0000000000
     20815      2439  TIP3      OH2           -12.2231624327      -28.4675787789      -26.3695147156  TIP3      2339            0.0000000000
     20816      2439  TIP3      H1            -12.9045570679      -28.0940121978      -26.9492223133  TIP3      2339            0.0000000000
     20817      2439  TIP3      H2            -12.4518989440      -29.4171929206      -26.3403501610  TIP3      2339            0.0000000000
     20818      2440  TIP3      OH2           -27.1225547161      -10.6815776023      -27.9872199919  TIP3      2340            0.0000000000
     20819      2440  TIP3      H1            -27.9858994117      -10.3197532971      -28.3060603987  TIP3      2340            0.0000000000
     20820      2440  TIP3      H2            -27.0382245192      -10.2883606012      -27.1032862299  TIP3      2340            0.0000000000
     20821      2441  TIP3      OH2           -24.6597190439      -10.9651287624      -29.0132918012  TIP3      2341            0.0000000000
     20822      2441  TIP3      H1            -25.5997439417      -10.7765738391      -28.7768694006  TIP3      2341            0.0000000000
     20823      2441  TIP3      H2            -24.6147194474      -10.5817973529      -29.9065264710  TIP3      2341            0.0000000000
     20824      2442  TIP3      OH2           -19.8911921832      -11.3904006734      -29.7019863231  TIP3      2342            0.0000000000
     20825      2442  TIP3      H1            -20.6854446786      -10.9183011700      -30.0403411625  TIP3      2342            0.0000000000
     20826      2442  TIP3      H2            -19.5458475061      -10.7043974925      -29.0931940859  TIP3      2342            0.0000000000
     20827      2443  TIP3      OH2           -17.4736008446      -12.4591941884      -28.3687174217  TIP3      2343            0.0000000000
     20828      2443  TIP3      H1            -18.1711463103      -12.1340708383      -28.9681400989  TIP3      2343            0.0000000000
     20829      2443  TIP3      H2            -16.7327854226      -11.9176220877      -28.6958709490  TIP3      2343            0.0000000000
     20830      2444  TIP3      OH2           -15.0523906503      -10.8139133609      -28.6593474081  TIP3      2344            0.0000000000
     20831      2444  TIP3      H1            -14.9305508527       -9.8828116940      -28.9362270852  TIP3      2344            0.0000000000
     20832      2444  TIP3      H2            -14.7129955513      -11.2942820816      -29.4518728139  TIP3      2344            0.0000000000
     20833      2445  TIP3      OH2           -27.1573118195      -11.8891333081      -31.2912373671  TIP3      2345            0.0000000000
     20834      2445  TIP3      H1            -27.2027497625      -12.4540010997      -30.4838230122  TIP3      2345            0.0000000000
     20835      2445  TIP3      H2            -26.3643961628      -12.2953092364      -31.7247573179  TIP3      2345            0.0000000000
     20836      2446  TIP3      OH2           -25.0579197106      -13.0773085288      -32.4333161357  TIP3      2346            0.0000000000
     20837      2446  TIP3      H1            -25.0895680259      -14.0344479251      -32.2219971215  TIP3      2346            0.0000000000
     20838      2446  TIP3      H2            -24.3214070849      -12.8441515010      -31.8276470263  TIP3      2346            0.0000000000
     20839      2447  TIP3      OH2           -22.9387762159      -13.1899164986      -30.7374211986  TIP3      2347            0.0000000000
     20840      2447  TIP3      H1            -22.5918891471      -14.0566858261      -31.0122148906  TIP3      2347            0.0000000000
     20841      2447  TIP3      H2            -22.6300102830      -13.1717919215      -29.8022105269  TIP3      2347            0.0000000000
     20842      2448  TIP3      OH2           -18.6779297065      -27.3578656353      -32.4436096274  TIP3      2348            0.0000000000
     20843      2448  TIP3      H1            -19.6067418586      -27.5563322814      -32.2616438970  TIP3      2348            0.0000000000
     20844      2448  TIP3      H2            -18.2950370370      -28.2526140232      -32.3347395885  TIP3      2348            0.0000000000
     20845      2449  TIP3      OH2           -14.0766996609      -28.0030952824      -32.2673997607  TIP3      2349            0.0000000000
     20846      2449  TIP3      H1            -13.5384764614      -28.0771850152      -33.0693120905  TIP3      2349            0.0000000000
     20847      2449  TIP3      H2            -14.9827252600      -28.1913166627      -32.6033934158  TIP3      2349            0.0000000000
     20848      2450  TIP3      OH2           -11.9164298454      -27.8961232042      -34.3093552053  TIP3      2350            0.0000000000
     20849      2450  TIP3      H1            -11.2922431857      -27.8562509593      -35.0550901831  TIP3      2350            0.0000000000
     20850      2450  TIP3      H2            -11.6540081702      -27.0369475897      -33.8969432451  TIP3      2350            0.0000000000
     20851      2451  TIP3      OH2           -26.4725695612      -28.4129262053      -34.8246686403  TIP3      2351            0.0000000000
     20852      2451  TIP3      H1            -27.2716203378      -28.3417358629      -35.3847011776  TIP3      2351            0.0000000000
     20853      2451  TIP3      H2            -26.3320447044      -29.3874309043      -34.8521015534  TIP3      2351            0.0000000000
     20854      2452  TIP3      OH2           -27.9452882153      -28.6153736172      -38.9573343760  TIP3      2352            0.0000000000
     20855      2452  TIP3      H1            -27.6928523054      -28.0669347903      -39.7366611189  TIP3      2352            0.0000000000
     20856      2452  TIP3      H2            -27.6018400680      -28.0907151618      -38.2159961371  TIP3      2352            0.0000000000
     20857      2453  TIP3      OH2           -22.2769949594      -28.5026949014      -34.6848692194  TIP3      2353            0.0000000000
     20858      2453  TIP3      H1            -21.8673595580      -27.8176462925      -35.2337855594  TIP3      2353            0.0000000000
     20859      2453  TIP3      H2            -21.9524210724      -28.2654890787      -33.7914059237  TIP3      2353            0.0000000000
     20860      2454  TIP3      OH2           -16.3917252164      -28.6132919962      -33.4783300708  TIP3      2354            0.0000000000
     20861      2454  TIP3      H1            -16.8302939285      -28.3424684161      -34.2948469390  TIP3      2354            0.0000000000
     20862      2454  TIP3      H2            -16.7732550628      -29.5100633383      -33.3502194301  TIP3      2354            0.0000000000
     20863      2455  TIP3      OH2           -15.2200992147      -28.2700433727      -38.0883010449  TIP3      2355            0.0000000000
     20864      2455  TIP3      H1            -16.0910161161      -28.0566171235      -38.4914332924  TIP3      2355            0.0000000000
     20865      2455  TIP3      H2            -15.4245306461      -29.1624433320      -37.7456994841  TIP3      2355            0.0000000000
     20866      2456  TIP3      OH2           -27.7900577982      -12.5868489787      -38.1235636197  TIP3      2356            0.0000000000
     20867      2456  TIP3      H1            -28.7740763840      -12.5593489869      -38.0590424450  TIP3      2356            0.0000000000
     20868      2456  TIP3      H2            -27.6213068941      -11.6840390111      -38.4863183222  TIP3      2356            0.0000000000
     20869      2457  TIP3      OH2           -26.7085400676      -26.9277793009      -40.6359958389  TIP3      2357            0.0000000000
     20870      2457  TIP3      H1            -25.9200908771      -27.3610462990      -40.9802218530  TIP3      2357            0.0000000000
     20871      2457  TIP3      H2            -26.3835042703      -26.0986723385      -40.2467203302  TIP3      2357            0.0000000000
     20872      2458  TIP3      OH2           -21.4308759776      -26.7890650236      -38.1510681892  TIP3      2358            0.0000000000
     20873      2458  TIP3      H1            -20.5819407264      -27.2240272023      -38.4036785436  TIP3      2358            0.0000000000
     20874      2458  TIP3      H2            -21.1317166233      -26.1463924290      -37.4922234296  TIP3      2358            0.0000000000
     20875      2459  TIP3      OH2           -19.1722215002      -10.8300128205      -39.8344545779  TIP3      2359            0.0000000000
     20876      2459  TIP3      H1            -18.1997252069      -10.9111365164      -39.8040794147  TIP3      2359            0.0000000000
     20877      2459  TIP3      H2            -19.3649180981      -11.6996249156      -40.2402831576  TIP3      2359            0.0000000000
     20878      2460  TIP3      OH2           -12.7049450447      -12.0810878084      -36.5556897901  TIP3      2360            0.0000000000
     20879      2460  TIP3      H1            -12.9919174616      -12.9019087740      -37.0301707999  TIP3      2360            0.0000000000
     20880      2460  TIP3      H2            -12.6966863650      -11.4378288383      -37.2783228674  TIP3      2360            0.0000000000
     20881      2461  TIP3      OH2           -26.9217464335      -27.7249726699      -25.5485903584  TIP3      2361            0.0000000000
     20882      2461  TIP3      H1            -27.3471083017      -28.5609388117      -25.8120744995  TIP3      2361            0.0000000000
     20883      2461  TIP3      H2            -26.2844181174      -28.0418658589      -24.8653908324  TIP3      2361            0.0000000000
     20884      2462  TIP3      OH2           -24.8675151199      -28.1819032986      -23.8401810343  TIP3      2362            0.0000000000
     20885      2462  TIP3      H1            -23.9158756359      -28.1636828234      -24.0366521274  TIP3      2362            0.0000000000
     20886      2462  TIP3      H2            -24.9978098627      -29.0744266830      -23.4631631636  TIP3      2362            0.0000000000
     20887      2463  TIP3      OH2           -26.6609407606      -11.8853864790      -41.0211058321  TIP3      2363            0.0000000000
     20888      2463  TIP3      H1            -26.9074817360      -11.0883548708      -40.5249772723  TIP3      2363            0.0000000000
     20889      2463  TIP3      H2            -26.3332838948      -12.4806966715      -40.3329413466  TIP3      2363            0.0000000000
     20890      2464  TIP3      OH2           -16.3200073623       29.7775199975      -23.7211876482  TIP3      2364            0.0000000000
     20891      2464  TIP3      H1            -16.3296959289       28.8033033828      -23.6479394992  TIP3      2364            0.0000000000
     20892      2464  TIP3      H2            -15.8349411062       29.9123513473      -24.5448549003  TIP3      2364            0.0000000000
     20893      2465  TIP3      OH2           -13.0975644529      -13.4118896996      -24.9245739437  TIP3      2365            0.0000000000
     20894      2465  TIP3      H1            -13.8453377781      -13.3243903770      -25.5652681708  TIP3      2365            0.0000000000
     20895      2465  TIP3      H2            -12.9955486151      -12.4918084840      -24.6432668662  TIP3      2365            0.0000000000
     20896      2466  TIP3      OH2             1.5681929146      -19.2944396686      -34.7145013132  TIP3      2366            0.0000000000
     20897      2466  TIP3      H1              1.4408211434      -18.4535546103      -34.2346248086  TIP3      2366            0.0000000000
     20898      2466  TIP3      H2              0.8028198024      -19.2725453049      -35.3156654988  TIP3      2366            0.0000000000
     20899      2467  TIP3      OH2             0.3110597201      -20.5516740539      -31.6163252490  TIP3      2367            0.0000000000
     20900      2467  TIP3      H1              0.4299631060      -20.9592929166      -30.7305691222  TIP3      2367            0.0000000000
     20901      2467  TIP3      H2             -0.6051059764      -20.7797901359      -31.8438159596  TIP3      2367            0.0000000000
     20902      2468  TIP3      OH2            -7.7461045564      -20.4885016131      -29.5665266486  TIP3      2368            0.0000000000
     20903      2468  TIP3      H1             -7.9956523366      -21.3090125487      -29.0966403671  TIP3      2368            0.0000000000
     20904      2468  TIP3      H2             -6.7814073400      -20.6246389115      -29.6726360029  TIP3      2368            0.0000000000
     20905      2469  TIP3      OH2             3.3816699457      -17.3201799363      -32.6954015834  TIP3      2369            0.0000000000
     20906      2469  TIP3      H1              3.2342363090      -18.0906708235      -32.1170917301  TIP3      2369            0.0000000000
     20907      2469  TIP3      H2              3.4556383446      -16.5950056982      -32.0566478919  TIP3      2369            0.0000000000
     20908      2470  TIP3      OH2            -6.5366631370      -15.5948736194      -31.4085181625  TIP3      2370            0.0000000000
     20909      2470  TIP3      H1             -6.9781524734      -16.4177026899      -31.6922088144  TIP3      2370            0.0000000000
     20910      2470  TIP3      H2             -5.6088542333      -15.8157266723      -31.6507025714  TIP3      2370            0.0000000000
     20911      2471  TIP3      OH2           -10.0892403926      -23.0185258958      -35.5813941529  TIP3      2371            0.0000000000
     20912      2471  TIP3      H1            -10.6450669113      -22.6025201262      -34.9067253035  TIP3      2371            0.0000000000
     20913      2471  TIP3      H2            -10.7578881847      -23.1345345804      -36.2802045868  TIP3      2371            0.0000000000
     20914      2472  TIP3      OH2            -9.7643906795      -20.0822971924      -33.3226043840  TIP3      2372            0.0000000000
     20915      2472  TIP3      H1             -9.3720953706      -20.9830644084      -33.3029368948  TIP3      2372            0.0000000000
     20916      2472  TIP3      H2             -8.9961585105      -19.5181021277      -33.5143916955  TIP3      2372            0.0000000000
     20917      2473  TIP3      OH2             0.8690029349      -11.8751440259      -32.9980501221  TIP3      2373            0.0000000000
     20918      2473  TIP3      H1              1.4237212341      -12.4334773810      -33.5884629252  TIP3      2373            0.0000000000
     20919      2473  TIP3      H2              0.6647617247      -12.5682429040      -32.3536769582  TIP3      2373            0.0000000000
     20920      2474  TIP3      OH2            -1.8386439107      -17.2851629670      -30.4693486916  TIP3      2374            0.0000000000
     20921      2474  TIP3      H1             -1.5380365521      -17.4372150953      -31.3746548164  TIP3      2374            0.0000000000
     20922      2474  TIP3      H2             -0.9675397459      -17.3528363335      -30.0086608552  TIP3      2374            0.0000000000
     20923      2475  TIP3      OH2             6.7810180872      -26.2170681199      -30.3382908610  TIP3      2375            0.0000000000
     20924      2475  TIP3      H1              7.1216616530      -25.4983351766      -29.7676066399  TIP3      2375            0.0000000000
     20925      2475  TIP3      H2              7.4275409753      -26.2454353201      -31.0617313467  TIP3      2375            0.0000000000
     20926      2476  TIP3      OH2             1.9511284233      -23.3650668686      -30.1683972629  TIP3      2376            0.0000000000
     20927      2476  TIP3      H1              2.1571342115      -24.2533781738      -29.8340491435  TIP3      2376            0.0000000000
     20928      2476  TIP3      H2              1.9662161311      -23.5292934748      -31.1340154951  TIP3      2376            0.0000000000
     20929      2477  TIP3      OH2            -5.1034462355      -25.2094256027      -33.5098174572  TIP3      2377            0.0000000000
     20930      2477  TIP3      H1             -4.9709093946      -24.3220509182      -33.9038293337  TIP3      2377            0.0000000000
     20931      2477  TIP3      H2             -5.6674943890      -25.5921683708      -34.2233991869  TIP3      2377            0.0000000000
     20932      2478  TIP3      OH2             2.1817615378      -25.2576185071      -34.8972231617  TIP3      2378            0.0000000000
     20933      2478  TIP3      H1              2.6683415472      -25.6363655845      -34.1334028993  TIP3      2378            0.0000000000
     20934      2478  TIP3      H2              2.8044469757      -24.5692479394      -35.1916125169  TIP3      2378            0.0000000000
     20935      2479  TIP3      OH2            -8.6593016778      -22.5094765983      -32.5735557240  TIP3      2379            0.0000000000
     20936      2479  TIP3      H1             -8.0122917511      -22.8795964400      -31.9419270305  TIP3      2379            0.0000000000
     20937      2479  TIP3      H2             -8.3157128346      -22.8902226387      -33.4026595502  TIP3      2379            0.0000000000
     20938      2480  TIP3      OH2            -4.1550151134      -20.8836291131      -32.9756622697  TIP3      2380            0.0000000000
     20939      2480  TIP3      H1             -3.3747277601      -21.3810756422      -32.6756692038  TIP3      2380            0.0000000000
     20940      2480  TIP3      H2             -4.4966045067      -21.5320557256      -33.6396489121  TIP3      2380            0.0000000000
     20941      2481  TIP3      OH2             7.2361871848      -24.8047942599      -27.9566994125  TIP3      2381            0.0000000000
     20942      2481  TIP3      H1              6.8426222341      -23.9789943725      -28.3190883781  TIP3      2381            0.0000000000
     20943      2481  TIP3      H2              7.1947777263      -24.6150630432      -27.0102316239  TIP3      2381            0.0000000000
     20944      2482  TIP3      OH2            -6.0875222448      -26.2369260034      -29.1133849954  TIP3      2382            0.0000000000
     20945      2482  TIP3      H1             -6.5037942056      -25.7883400868      -29.8796238826  TIP3      2382            0.0000000000
     20946      2482  TIP3      H2             -6.8435116746      -26.1802795740      -28.4826459302  TIP3      2382            0.0000000000
     20947      2483  TIP3      OH2             0.5716236071      -16.6722899236      -35.6728607342  TIP3      2383            0.0000000000
     20948      2483  TIP3      H1              0.4852182851      -16.6826540064      -36.6521473142  TIP3      2383            0.0000000000
     20949      2483  TIP3      H2              0.1427942353      -15.8223775336      -35.4411326839  TIP3      2383            0.0000000000
     20950      2484  TIP3      OH2            -4.0017234219      -18.5444606564      -29.3142693886  TIP3      2384            0.0000000000
     20951      2484  TIP3      H1             -4.5327339597      -17.8104975099      -28.9310222883  TIP3      2384            0.0000000000
     20952      2484  TIP3      H2             -3.2626858341      -18.0455645511      -29.7255013983  TIP3      2384            0.0000000000
     20953      2485  TIP3      OH2             3.8156249710      -25.6507309881      -32.7444788310  TIP3      2385            0.0000000000
     20954      2485  TIP3      H1              3.9128527422      -26.5209261788      -32.3006099332  TIP3      2385            0.0000000000
     20955      2485  TIP3      H2              4.6535150574      -25.2522893994      -32.4633559350  TIP3      2385            0.0000000000
     20956      2486  TIP3      OH2            -6.6846930211      -24.2291038642      -31.4384982950  TIP3      2386            0.0000000000
     20957      2486  TIP3      H1             -6.0093175521      -23.6829837096      -30.9718009991  TIP3      2386            0.0000000000
     20958      2486  TIP3      H2             -6.1454788345      -24.6204884878      -32.1578146644  TIP3      2386            0.0000000000
     20959      2487  TIP3      OH2            -5.3290023528      -16.3323247793      -28.4683368364  TIP3      2387            0.0000000000
     20960      2487  TIP3      H1             -5.6277566744      -15.8594139858      -29.2599123820  TIP3      2387            0.0000000000
     20961      2487  TIP3      H2             -6.1747004727      -16.3929772464      -27.9532649545  TIP3      2387            0.0000000000
     20962      2488  TIP3      OH2            -9.5985367089      -17.1510798941      -37.3636164121  TIP3      2388            0.0000000000
     20963      2488  TIP3      H1             -9.6496238794      -16.6927083128      -38.2209577052  TIP3      2388            0.0000000000
     20964      2488  TIP3      H2             -9.4727638408      -16.3820488993      -36.7571815251  TIP3      2388            0.0000000000
     20965      2489  TIP3      OH2             4.2369449413      -15.2744339769      -30.5849695862  TIP3      2389            0.0000000000
     20966      2489  TIP3      H1              3.3169425012      -15.0268705673      -30.3462164298  TIP3      2389            0.0000000000
     20967      2489  TIP3      H2              4.4648196323      -14.5227064898      -31.1532951749  TIP3      2389            0.0000000000
     20968      2490  TIP3      OH2             4.5915469692      -26.4529275462      -28.7271576786  TIP3      2390            0.0000000000
     20969      2490  TIP3      H1              3.8241436483      -26.1091643338      -29.2218560081  TIP3      2390            0.0000000000
     20970      2490  TIP3      H2              5.3214630356      -26.3888490519      -29.3827464771  TIP3      2390            0.0000000000
     20971      2491  TIP3      OH2            -2.4906237396      -28.4274398973      -32.3465642398  TIP3      2391            0.0000000000
     20972      2491  TIP3      H1             -2.1456406534      -29.1398680241      -31.7812635843  TIP3      2391            0.0000000000
     20973      2491  TIP3      H2             -3.2276844809      -28.0972004219      -31.7900272951  TIP3      2391            0.0000000000
     20974      2492  TIP3      OH2             2.3910378342      -13.5559966167      -34.2416585681  TIP3      2392            0.0000000000
     20975      2492  TIP3      H1              2.8262483252      -14.3220184482      -34.6789542666  TIP3      2392            0.0000000000
     20976      2492  TIP3      H2              3.0441131003      -12.8429216992      -34.4558686865  TIP3      2392            0.0000000000
     20977      2493  TIP3      OH2             3.7241362793      -15.5896029733      -35.5026240256  TIP3      2393            0.0000000000
     20978      2493  TIP3      H1              3.6242005474      -16.2969473024      -36.1809957531  TIP3      2393            0.0000000000
     20979      2493  TIP3      H2              3.5288820189      -16.1156111752      -34.7164431093  TIP3      2393            0.0000000000
     20980      2494  TIP3      OH2             5.3276758791      -17.1087313988      -27.0123152015  TIP3      2394            0.0000000000
     20981      2494  TIP3      H1              5.4116669297      -17.8047337414      -27.7021546765  TIP3      2394            0.0000000000
     20982      2494  TIP3      H2              5.4840183076      -16.3055306222      -27.5403903630  TIP3      2394            0.0000000000
     20983      2495  TIP3      OH2            -0.5638378581      -20.1672587485      -37.3892531603  TIP3      2395            0.0000000000
     20984      2495  TIP3      H1             -0.9531724333      -19.2726676882      -37.4962318523  TIP3      2395            0.0000000000
     20985      2495  TIP3      H2              0.0311579008      -20.2226446606      -38.1558265165  TIP3      2395            0.0000000000
     20986      2496  TIP3      OH2            -0.1582082827      -21.0573578875      -40.0556533059  TIP3      2396            0.0000000000
     20987      2496  TIP3      H1              0.7378863469      -20.9084636042      -39.6908438707  TIP3      2396            0.0000000000
     20988      2496  TIP3      H2             -0.1397861705      -21.9770499031      -40.3487206442  TIP3      2396            0.0000000000
     20989      2497  TIP3      OH2             7.4412603937      -20.4533871864      -28.9825594022  TIP3      2397            0.0000000000
     20990      2497  TIP3      H1              6.8085825800      -19.7066962047      -28.9644148002  TIP3      2397            0.0000000000
     20991      2497  TIP3      H2              8.0558968918      -20.1381935052      -29.6758153571  TIP3      2397            0.0000000000
     20992      2498  TIP3      OH2             3.8564280223      -19.8060973074      -36.1804931232  TIP3      2398            0.0000000000
     20993      2498  TIP3      H1              3.0325008894      -19.6681748728      -35.6540989693  TIP3      2398            0.0000000000
     20994      2498  TIP3      H2              4.4243780999      -20.1818923962      -35.4886617366  TIP3      2398            0.0000000000
     20995      2499  TIP3      OH2             3.3250741422      -21.6143660739      -26.9079956945  TIP3      2399            0.0000000000
     20996      2499  TIP3      H1              2.9880067188      -20.7375420587      -26.6545276414  TIP3      2399            0.0000000000
     20997      2499  TIP3      H2              2.8928049572      -21.7115015253      -27.7730796610  TIP3      2399            0.0000000000
     20998      2500  TIP3      OH2            -5.4061171048      -19.0242115167      -34.4926132183  TIP3      2400            0.0000000000
     20999      2500  TIP3      H1             -5.6231499919      -19.5650856399      -35.2895292274  TIP3      2400            0.0000000000
     21000      2500  TIP3      H2             -4.9676858372      -19.6875300004      -33.9223299506  TIP3      2400            0.0000000000
     21001      2501  TIP3      OH2            -3.8716013095      -15.9970015242      -31.7734985296  TIP3      2401            0.0000000000
     21002      2501  TIP3      H1             -3.6262619453      -16.1842272781      -32.6913996021  TIP3      2401            0.0000000000
     21003      2501  TIP3      H2             -3.1548548704      -16.4258758321      -31.2523942402  TIP3      2401            0.0000000000
     21004      2502  TIP3      OH2            -5.1607115539      -20.5565587701      -30.5448635955  TIP3      2402            0.0000000000
     21005      2502  TIP3      H1             -4.8630975189      -20.4429421636      -31.4776099146  TIP3      2402            0.0000000000
     21006      2502  TIP3      H2             -4.7446841432      -19.7754465896      -30.1054948243  TIP3      2402            0.0000000000
     21007      2503  TIP3      OH2             1.6563074810      -14.8728368282      -29.9213985011  TIP3      2403            0.0000000000
     21008      2503  TIP3      H1              1.3846250530      -14.3075632715      -29.1822300418  TIP3      2403            0.0000000000
     21009      2503  TIP3      H2              1.4881172583      -15.7635051749      -29.5571309148  TIP3      2403            0.0000000000
     21010      2504  TIP3      OH2            -3.9395320898      -16.1957831016      -26.1757261142  TIP3      2404            0.0000000000
     21011      2504  TIP3      H1             -4.5577907615      -15.5458282959      -25.7704779480  TIP3      2404            0.0000000000
     21012      2504  TIP3      H2             -4.4046421002      -16.3424315939      -27.0295650454  TIP3      2404            0.0000000000
     21013      2505  TIP3      OH2             2.1268924300      -20.4073282396      -38.3154169419  TIP3      2405            0.0000000000
     21014      2505  TIP3      H1              2.7071812981      -20.1159960010      -37.5770452303  TIP3      2405            0.0000000000
     21015      2505  TIP3      H2              2.5260762631      -19.9063614812      -39.0644801353  TIP3      2405            0.0000000000
     21016      2506  TIP3      OH2            -6.8547968307      -20.1449695885      -26.5467229668  TIP3      2406            0.0000000000
     21017      2506  TIP3      H1             -6.7986101329      -19.4239343777      -25.8921789451  TIP3      2406            0.0000000000
     21018      2506  TIP3      H2             -7.7871627473      -20.3992996566      -26.4254144715  TIP3      2406            0.0000000000
     21019      2507  TIP3      OH2            -0.7778995763      -14.2737807720      -35.4374284001  TIP3      2407            0.0000000000
     21020      2507  TIP3      H1             -0.3979182496      -13.7249746837      -34.7409240151  TIP3      2407            0.0000000000
     21021      2507  TIP3      H2             -1.0953606675      -13.6360581416      -36.0911873060  TIP3      2407            0.0000000000
     21022      2508  TIP3      OH2            -5.6159930546      -14.3727913067      -25.3061264292  TIP3      2408            0.0000000000
     21023      2508  TIP3      H1             -5.6703720027      -13.9369943014      -26.1934916223  TIP3      2408            0.0000000000
     21024      2508  TIP3      H2             -6.5403295246      -14.6761597719      -25.1864768654  TIP3      2408            0.0000000000
     21025      2509  TIP3      OH2             6.2044758655      -29.0264618691      -38.1739529583  TIP3      2409            0.0000000000
     21026      2509  TIP3      H1              5.2923005343      -28.9473630528      -38.5327171155  TIP3      2409            0.0000000000
     21027      2509  TIP3      H2              6.6196584177      -28.2751339705      -38.6234685179  TIP3      2409            0.0000000000
     21028      2510  TIP3      OH2            -6.5591684794      -20.3120205256      -36.5323950364  TIP3      2410            0.0000000000
     21029      2510  TIP3      H1             -6.8338057497      -19.5298337450      -37.0587750092  TIP3      2410            0.0000000000
     21030      2510  TIP3      H2             -6.8844232284      -21.0547037551      -37.0510188843  TIP3      2410            0.0000000000
     21031      2511  TIP3      OH2             7.0003755357      -14.5379069769      -40.2145139383  TIP3      2411            0.0000000000
     21032      2511  TIP3      H1              7.2845283544      -13.6258129610      -39.9950036172  TIP3      2411            0.0000000000
     21033      2511  TIP3      H2              7.8529191881      -15.0237663402      -40.2076935905  TIP3      2411            0.0000000000
     21034      2512  TIP3      OH2            -9.7999628970      -17.6795155810      -28.0539894724  TIP3      2412            0.0000000000
     21035      2512  TIP3      H1            -10.2167845414      -17.8892439355      -28.9057486021  TIP3      2412            0.0000000000
     21036      2512  TIP3      H2             -9.3344654481      -18.5242002076      -27.8980240419  TIP3      2412            0.0000000000
     21037      2513  TIP3      OH2           -10.0141561579      -15.2046833322      -31.1780272451  TIP3      2413            0.0000000000
     21038      2513  TIP3      H1             -9.4448205912      -15.6337126134      -30.5294974971  TIP3      2413            0.0000000000
     21039      2513  TIP3      H2             -9.9079434984      -14.2708069682      -30.9543632459  TIP3      2413            0.0000000000
     21040      2514  TIP3      OH2             7.6737293752      -14.4446352541      -25.5290218034  TIP3      2414            0.0000000000
     21041      2514  TIP3      H1              7.7344391598      -15.4133928982      -25.5337403979  TIP3      2414            0.0000000000
     21042      2514  TIP3      H2              6.9002014659      -14.3645999857      -24.9286539791  TIP3      2414            0.0000000000
     21043      2515  TIP3      OH2            -1.0915136468      -15.0289397525      -26.5455186145  TIP3      2415            0.0000000000
     21044      2515  TIP3      H1             -0.9252492301      -14.2149076979      -26.0327054594  TIP3      2415            0.0000000000
     21045      2515  TIP3      H2             -2.0230814119      -15.2283210304      -26.3388904112  TIP3      2415            0.0000000000
     21046      2516  TIP3      OH2            -0.8835495186      -11.0042641551      -37.0376379234  TIP3      2416            0.0000000000
     21047      2516  TIP3      H1             -0.6249635648      -10.8564745755      -37.9713713836  TIP3      2416            0.0000000000
     21048      2516  TIP3      H2             -0.7611139451      -10.1062402382      -36.6591908228  TIP3      2416            0.0000000000
     21049      2517  TIP3      OH2            -6.9376015885      -12.3456737111      -34.9532717411  TIP3      2417            0.0000000000
     21050      2517  TIP3      H1             -6.5732694878      -12.6141077407      -34.0774497913  TIP3      2417            0.0000000000
     21051      2517  TIP3      H2             -7.8784363322      -12.5697384635      -34.8386269653  TIP3      2417            0.0000000000
     21052      2518  TIP3      OH2             2.4775890060      -11.6733374252      -39.8728250593  TIP3      2418            0.0000000000
     21053      2518  TIP3      H1              2.9934363469      -12.4441658969      -40.1960921104  TIP3      2418            0.0000000000
     21054      2518  TIP3      H2              2.4381873129      -11.8201111337      -38.9051204014  TIP3      2418            0.0000000000
     21055      2519  TIP3      OH2             1.9161042206      -11.8505962135      -37.1384954379  TIP3      2419            0.0000000000
     21056      2519  TIP3      H1              1.0362175604      -11.6243489398      -36.7911799749  TIP3      2419            0.0000000000
     21057      2519  TIP3      H2              2.0859205839      -12.6920666408      -36.6883270518  TIP3      2419            0.0000000000
     21058      2520  TIP3      OH2             5.0261151258      -22.9024120980      -25.0831737577  TIP3      2420            0.0000000000
     21059      2520  TIP3      H1              4.3423034511      -22.3655109357      -25.5365393750  TIP3      2420            0.0000000000
     21060      2520  TIP3      H2              4.9086279310      -23.7698813609      -25.5190657840  TIP3      2420            0.0000000000
     21061      2521  TIP3      OH2            -7.5780163619      -16.4700650836      -27.0811322993  TIP3      2421            0.0000000000
     21062      2521  TIP3      H1             -7.4796929746      -16.9187629019      -26.2067540502  TIP3      2421            0.0000000000
     21063      2521  TIP3      H2             -8.4286981686      -16.8465095126      -27.3995196491  TIP3      2421            0.0000000000
     21064      2522  TIP3      OH2            -4.8124700103      -27.4674067686      -31.1208319557  TIP3      2422            0.0000000000
     21065      2522  TIP3      H1             -5.2920098917      -26.9628661563      -31.7983319395  TIP3      2422            0.0000000000
     21066      2522  TIP3      H2             -5.2046180714      -27.1098426962      -30.2939187570  TIP3      2422            0.0000000000
     21067      2523  TIP3      OH2            -0.5488088094      -28.1242653371      -27.1883212161  TIP3      2423            0.0000000000
     21068      2523  TIP3      H1             -0.1777297622      -29.0068270150      -27.3475929187  TIP3      2423            0.0000000000
     21069      2523  TIP3      H2             -1.4758180248      -28.2829276230      -27.4607498340  TIP3      2423            0.0000000000
     21070      2524  TIP3      OH2             2.4526322515      -24.2683159484      -26.3673608104  TIP3      2424            0.0000000000
     21071      2524  TIP3      H1              1.8076713489      -24.6506100219      -25.7221171728  TIP3      2424            0.0000000000
     21072      2524  TIP3      H2              2.3997071288      -23.3217228968      -26.1798025780  TIP3      2424            0.0000000000
     21073      2525  TIP3      OH2             3.3328145863      -19.1433673089      -40.3888742899  TIP3      2425            0.0000000000
     21074      2525  TIP3      H1              3.5348884987      -19.5003659370      -41.2649959834  TIP3      2425            0.0000000000
     21075      2525  TIP3      H2              4.0371499907      -18.4748335084      -40.2853220362  TIP3      2425            0.0000000000
     21076      2526  TIP3      OH2            -0.7466797826      -25.4591654234      -40.1780961764  TIP3      2426            0.0000000000
     21077      2526  TIP3      H1             -1.1503235537      -25.9685876003      -39.4567995944  TIP3      2426            0.0000000000
     21078      2526  TIP3      H2             -0.4112280336      -26.1633542039      -40.7574065110  TIP3      2426            0.0000000000
     21079      2527  TIP3      OH2            -4.7220603162      -23.1802745460      -29.9183892354  TIP3      2427            0.0000000000
     21080      2527  TIP3      H1             -5.2435247140      -22.9478509777      -29.1188825624  TIP3      2427            0.0000000000
     21081      2527  TIP3      H2             -4.6537310260      -22.2805961179      -30.2914471781  TIP3      2427            0.0000000000
     21082      2528  TIP3      OH2            -5.1866758194      -22.7120213208      -34.6296606459  TIP3      2428            0.0000000000
     21083      2528  TIP3      H1             -6.0955427494      -22.9104050099      -34.9570983516  TIP3      2428            0.0000000000
     21084      2528  TIP3      H2             -4.7155117192      -22.6837773552      -35.4891862617  TIP3      2428            0.0000000000
     21085      2529  TIP3      OH2             0.6502783890      -22.1367256402      -35.8948266993  TIP3      2429            0.0000000000
     21086      2529  TIP3      H1              0.2142374207      -21.4192955732      -36.4167557822  TIP3      2429            0.0000000000
     21087      2529  TIP3      H2              1.1810715539      -22.5618870214      -36.5902795676  TIP3      2429            0.0000000000
     21088      2530  TIP3      OH2            -0.4763601128      -21.6546462014      -24.4063827942  TIP3      2430            0.0000000000
     21089      2530  TIP3      H1             -0.9691580542      -22.4983365611      -24.3561391411  TIP3      2430            0.0000000000
     21090      2530  TIP3      H2              0.3082135491      -21.8663039685      -23.8648861845  TIP3      2430            0.0000000000
     21091      2531  TIP3      OH2             1.4871961381      -23.0265147468      -32.9565324041  TIP3      2431            0.0000000000
     21092      2531  TIP3      H1              1.2665408635      -22.2483744625      -33.5041506205  TIP3      2431            0.0000000000
     21093      2531  TIP3      H2              1.5639805620      -23.7033502436      -33.6481414824  TIP3      2431            0.0000000000
     21094      2532  TIP3      OH2            -7.6748839517      -23.0391285116      -28.5434392649  TIP3      2432            0.0000000000
     21095      2532  TIP3      H1             -7.1067965999      -22.6915460361      -27.8289772148  TIP3      2432            0.0000000000
     21096      2532  TIP3      H2             -7.8069239400      -23.9575471429      -28.2370890599  TIP3      2432            0.0000000000
     21097      2533  TIP3      OH2            -4.6372684572      -25.3461066827      -41.4283952628  TIP3      2433            0.0000000000
     21098      2533  TIP3      H1             -4.8167900652      -25.7043997282      -40.5328724007  TIP3      2433            0.0000000000
     21099      2533  TIP3      H2             -4.8083056098      -24.4061476728      -41.2607894912  TIP3      2433            0.0000000000
     21100      2534  TIP3      OH2           -10.8169679662      -25.4472915539      -33.9372266777  TIP3      2434            0.0000000000
     21101      2534  TIP3      H1            -10.1546431660      -25.3922391184      -33.2198179134  TIP3      2434            0.0000000000
     21102      2534  TIP3      H2            -10.3614194575      -25.0521615858      -34.6942131809  TIP3      2434            0.0000000000
     21103      2535  TIP3      OH2            -9.8238532009      -24.8508057590      -38.8895422994  TIP3      2435            0.0000000000
     21104      2535  TIP3      H1             -9.2187673235      -24.2764218556      -39.4098688716  TIP3      2435            0.0000000000
     21105      2535  TIP3      H2            -10.4029389583      -24.1578794582      -38.5205021722  TIP3      2435            0.0000000000
     21106      2536  TIP3      OH2             0.6522652331      -21.3566247466      -28.9436033045  TIP3      2436            0.0000000000
     21107      2536  TIP3      H1              1.2341161835      -22.0700984503      -29.3046787533  TIP3      2436            0.0000000000
     21108      2536  TIP3      H2              0.0338321098      -21.8635112304      -28.3734836841  TIP3      2436            0.0000000000
     21109      2537  TIP3      OH2            -2.1743591290      -25.4952257781      -33.9710570514  TIP3      2437            0.0000000000
     21110      2537  TIP3      H1             -3.1044762811      -25.7327036021      -33.8149186424  TIP3      2437            0.0000000000
     21111      2537  TIP3      H2             -1.7985371792      -25.4312567659      -33.0811823732  TIP3      2437            0.0000000000
     21112      2538  TIP3      OH2            -7.6148785458      -23.7821844516      -34.9423397487  TIP3      2438            0.0000000000
     21113      2538  TIP3      H1             -8.4649384048      -23.6143481214      -35.3990755842  TIP3      2438            0.0000000000
     21114      2538  TIP3      H2             -7.3122582441      -24.6369864406      -35.3192823759  TIP3      2438            0.0000000000
     21115      2539  TIP3      OH2            -4.3235020249      -23.3784869980      -37.1629054568  TIP3      2439            0.0000000000
     21116      2539  TIP3      H1             -3.3479254448      -23.4513541753      -37.0681474054  TIP3      2439            0.0000000000
     21117      2539  TIP3      H2             -4.4286479532      -22.8785997665      -37.9801246017  TIP3      2439            0.0000000000
     21118      2540  TIP3      OH2             1.9921575248      -26.3822412774      -30.2708290444  TIP3      2440            0.0000000000
     21119      2540  TIP3      H1              1.2433525979      -26.2563400164      -29.6571683300  TIP3      2440            0.0000000000
     21120      2540  TIP3      H2              1.5472325901      -26.5271925219      -31.1193723901  TIP3      2440            0.0000000000
     21121      2541  TIP3      OH2            -5.6218707532      -21.7228775865      -40.2160695933  TIP3      2441            0.0000000000
     21122      2541  TIP3      H1             -6.4113005299      -21.8734513249      -40.7650855919  TIP3      2441            0.0000000000
     21123      2541  TIP3      H2             -4.9154914072      -21.9317166263      -40.8494645696  TIP3      2441            0.0000000000
     21124      2542  TIP3      OH2             4.9810537794      -10.3337561276      -24.1778416984  TIP3      2442            0.0000000000
     21125      2542  TIP3      H1              5.1828294454       -9.6281888617      -24.8108441971  TIP3      2442            0.0000000000
     21126      2542  TIP3      H2              5.6833085375      -10.1227705867      -23.5304817348  TIP3      2442            0.0000000000
     21127      2543  TIP3      OH2            -7.3740550910      -18.0850043028      -24.9028924164  TIP3      2443            0.0000000000
     21128      2543  TIP3      H1             -6.7913868959      -17.7099586261      -24.2336366400  TIP3      2443            0.0000000000
     21129      2543  TIP3      H2             -8.1689475932      -18.3093029217      -24.3727404242  TIP3      2443            0.0000000000
     21130      2544  TIP3      OH2            -1.6316046654      -22.4903045721      -32.1561605870  TIP3      2444            0.0000000000
     21131      2544  TIP3      H1             -0.7420675393      -22.7687003195      -32.4374754692  TIP3      2444            0.0000000000
     21132      2544  TIP3      H2             -1.8314479167      -23.1556008427      -31.4703940809  TIP3      2444            0.0000000000
     21133      2545  TIP3      OH2            -6.5814794116      -26.3349683604      -35.4220414426  TIP3      2445            0.0000000000
     21134      2545  TIP3      H1             -6.9677613316      -27.0855057894      -34.9193015930  TIP3      2445            0.0000000000
     21135      2545  TIP3      H2             -6.0726753426      -26.8032542187      -36.1014416954  TIP3      2445            0.0000000000
     21136      2546  TIP3      OH2            -2.2684847039      -24.2760306202      -29.7038982059  TIP3      2446            0.0000000000
     21137      2546  TIP3      H1             -3.0948580792      -23.7510352947      -29.7357299433  TIP3      2446            0.0000000000
     21138      2546  TIP3      H2             -1.7366810805      -23.8167934957      -29.0344394301  TIP3      2446            0.0000000000
     21139      2547  TIP3      OH2            -1.9232264832      -17.8893217704      -37.4623282668  TIP3      2447            0.0000000000
     21140      2547  TIP3      H1             -2.6269685587      -18.5402500639      -37.6784426422  TIP3      2447            0.0000000000
     21141      2547  TIP3      H2             -2.2678202428      -17.5509295468      -36.6051097022  TIP3      2447            0.0000000000
     21142      2548  TIP3      OH2             5.4159816155      -18.5774934595      -29.2128238780  TIP3      2448            0.0000000000
     21143      2548  TIP3      H1              5.9029996852      -17.9307453108      -29.7729605581  TIP3      2448            0.0000000000
     21144      2548  TIP3      H2              4.7102698602      -18.8305380861      -29.8348529531  TIP3      2448            0.0000000000
     21145      2549  TIP3      OH2             1.9434583575      -24.9284110870      -40.0390592691  TIP3      2449            0.0000000000
     21146      2549  TIP3      H1              0.9778692662      -25.0258222415      -39.9611449368  TIP3      2449            0.0000000000
     21147      2549  TIP3      H2              2.1283043492      -24.3550010439      -39.2632653312  TIP3      2449            0.0000000000
     21148      2550  TIP3      OH2            -0.9149302615      -17.7615333672      -26.8590272132  TIP3      2450            0.0000000000
     21149      2550  TIP3      H1             -0.9710803562      -17.8958592920      -25.9016903860  TIP3      2450            0.0000000000
     21150      2550  TIP3      H2             -1.1827369834      -16.8253153664      -26.9019983173  TIP3      2450            0.0000000000
     21151      2551  TIP3      OH2             2.2748250837      -23.1453087943      -38.0144033525  TIP3      2451            0.0000000000
     21152      2551  TIP3      H1              2.8505734494      -23.2074872821      -37.2259878201  TIP3      2451            0.0000000000
     21153      2551  TIP3      H2              2.5523941718      -22.2885004766      -38.3877505899  TIP3      2451            0.0000000000
     21154      2552  TIP3      OH2            -6.9656394011      -18.4444547191      -32.2841980783  TIP3      2452            0.0000000000
     21155      2552  TIP3      H1             -6.4312610509      -18.5587986010      -33.0944367690  TIP3      2452            0.0000000000
     21156      2552  TIP3      H2             -6.7035018941      -19.2008455083      -31.7274148944  TIP3      2452            0.0000000000
     21157      2553  TIP3      OH2             0.1251404082      -16.5285854702      -38.3728714693  TIP3      2453            0.0000000000
     21158      2553  TIP3      H1             -0.3758492506      -15.6879999778      -38.3542426464  TIP3      2453            0.0000000000
     21159      2553  TIP3      H2             -0.5999127502      -17.1689315317      -38.1855787689  TIP3      2453            0.0000000000
     21160      2554  TIP3      OH2            -9.6431726078      -20.6816117797      -26.9233548865  TIP3      2454            0.0000000000
     21161      2554  TIP3      H1            -10.2651615050      -21.1897421647      -26.3638740561  TIP3      2454            0.0000000000
     21162      2554  TIP3      H2            -10.0779599282      -20.7621994079      -27.7893455934  TIP3      2454            0.0000000000
     21163      2555  TIP3      OH2            -3.3422811558      -20.5740233851      -25.0996482146  TIP3      2455            0.0000000000
     21164      2555  TIP3      H1             -3.0841127785      -21.0491382151      -25.9043741505  TIP3      2455            0.0000000000
     21165      2555  TIP3      H2             -2.5160741311      -20.6172659756      -24.5913570736  TIP3      2455            0.0000000000
     21166      2556  TIP3      OH2             1.9989028496      -15.3687354318      -26.4503910733  TIP3      2456            0.0000000000
     21167      2556  TIP3      H1              1.1758987535      -15.1118495695      -26.8846288840  TIP3      2456            0.0000000000
     21168      2556  TIP3      H2              1.7880024390      -15.1457480722      -25.5191268653  TIP3      2456            0.0000000000
     21169      2557  TIP3      OH2             7.2522402472      -23.0784822115      -38.0395882899  TIP3      2457            0.0000000000
     21170      2557  TIP3      H1              6.9247723727      -23.2161596595      -38.9568129345  TIP3      2457            0.0000000000
     21171      2557  TIP3      H2              7.4433780692      -22.1164221656      -38.1261602294  TIP3      2457            0.0000000000
     21172      2558  TIP3      OH2             7.6146223414      -17.2702570063      -25.5886012845  TIP3      2458            0.0000000000
     21173      2558  TIP3      H1              6.7030235112      -17.2708700008      -25.9849455584  TIP3      2458            0.0000000000
     21174      2558  TIP3      H2              8.1643866356      -17.4609063900      -26.3761339942  TIP3      2458            0.0000000000
     21175      2559  TIP3      OH2             5.6464404512      -14.2642104464      -37.7774561672  TIP3      2459            0.0000000000
     21176      2559  TIP3      H1              5.0175112923      -14.9475681809      -37.5186192132  TIP3      2459            0.0000000000
     21177      2559  TIP3      H2              6.0635955452      -14.6531027196      -38.5643795666  TIP3      2459            0.0000000000
     21178      2560  TIP3      OH2             3.0618707108      -19.5399936447      -31.0120122654  TIP3      2460            0.0000000000
     21179      2560  TIP3      H1              2.1155467503      -19.7196439557      -31.1445915707  TIP3      2460            0.0000000000
     21180      2560  TIP3      H2              3.4329528511      -20.3245853596      -31.4800081233  TIP3      2460            0.0000000000
     21181      2561  TIP3      OH2            -4.6528208311      -14.9838936032      -34.5440795825  TIP3      2461            0.0000000000
     21182      2561  TIP3      H1             -4.3888392481      -14.0471992193      -34.5452498373  TIP3      2461            0.0000000000
     21183      2561  TIP3      H2             -5.4018357268      -14.9709715170      -35.1571246886  TIP3      2461            0.0000000000
     21184      2562  TIP3      OH2            -8.1605595532      -20.1731469320      -40.3259717121  TIP3      2462            0.0000000000
     21185      2562  TIP3      H1             -7.8844035548      -19.6373436404      -39.5557780398  TIP3      2462            0.0000000000
     21186      2562  TIP3      H2             -9.1222970626      -20.1910597203      -40.2064126689  TIP3      2462            0.0000000000
     21187      2563  TIP3      OH2            -3.3155020741      -17.3234618252      -35.1450829359  TIP3      2463            0.0000000000
     21188      2563  TIP3      H1             -3.7360800688      -16.4466771771      -35.0135408800  TIP3      2463            0.0000000000
     21189      2563  TIP3      H2             -3.9633563364      -17.9321055545      -34.7371851718  TIP3      2463            0.0000000000
     21190      2564  TIP3      OH2            -2.5932411736      -13.2559042179      -28.2956248818  TIP3      2464            0.0000000000
     21191      2564  TIP3      H1             -2.0106076259      -12.6240440591      -28.7661167932  TIP3      2464            0.0000000000
     21192      2564  TIP3      H2             -1.9652694090      -13.6521548837      -27.6708035465  TIP3      2464            0.0000000000
     21193      2565  TIP3      OH2            -4.3811630989      -12.3590266460      -35.8427702434  TIP3      2465            0.0000000000
     21194      2565  TIP3      H1             -5.3415545159      -12.3452737693      -35.6440745251  TIP3      2465            0.0000000000
     21195      2565  TIP3      H2             -4.0883353164      -11.4978908592      -35.4686852631  TIP3      2465            0.0000000000
     21196      2566  TIP3      OH2             0.5613212301      -17.4836396339      -29.1689994269  TIP3      2466            0.0000000000
     21197      2566  TIP3      H1              0.1632856397      -17.6286660430      -28.2747312906  TIP3      2466            0.0000000000
     21198      2566  TIP3      H2              1.0848226126      -18.2990651765      -29.2411321927  TIP3      2466            0.0000000000
     21199      2567  TIP3      OH2             3.3401203764      -16.2964554495      -39.6351121647  TIP3      2467            0.0000000000
     21200      2567  TIP3      H1              3.3087402115      -16.6394295098      -38.7157088358  TIP3      2467            0.0000000000
     21201      2567  TIP3      H2              2.4772224058      -16.5943574592      -39.9525518949  TIP3      2467            0.0000000000
     21202      2568  TIP3      OH2             3.8123493926      -12.8238448640      -26.9264787844  TIP3      2468            0.0000000000
     21203      2568  TIP3      H1              2.8882107165      -13.1323627451      -26.9953166678  TIP3      2468            0.0000000000
     21204      2568  TIP3      H2              3.8736596027      -12.1989850020      -27.6715118989  TIP3      2468            0.0000000000
     21205      2569  TIP3      OH2             7.5724600335      -11.9017598699      -39.7258970206  TIP3      2469            0.0000000000
     21206      2569  TIP3      H1              8.1948881477      -11.5399680338      -40.3831485045  TIP3      2469            0.0000000000
     21207      2569  TIP3      H2              7.0286654416      -11.1310377341      -39.4534010899  TIP3      2469            0.0000000000
     21208      2570  TIP3      OH2            -7.9732344166      -25.4545337884      -27.2775248936  TIP3      2470            0.0000000000
     21209      2570  TIP3      H1             -8.9089019355      -25.2191088990      -27.1585967172  TIP3      2470            0.0000000000
     21210      2570  TIP3      H2             -7.9184763634      -26.2579929760      -26.7175747203  TIP3      2470            0.0000000000
     21211      2571  TIP3      OH2             4.0625186068      -17.4673513965      -37.3534548902  TIP3      2471            0.0000000000
     21212      2571  TIP3      H1              4.0137213407      -18.3681108874      -36.9543480429  TIP3      2471            0.0000000000
     21213      2571  TIP3      H2              5.0335188727      -17.3717158706      -37.4837136870  TIP3      2471            0.0000000000
     21214      2572  TIP3      OH2            -8.5342182432      -13.6765771404      -28.8158749227  TIP3      2472            0.0000000000
     21215      2572  TIP3      H1             -7.8767575607      -14.3713012408      -28.9325789179  TIP3      2472            0.0000000000
     21216      2572  TIP3      H2             -8.2111327134      -13.2534119892      -27.9994581242  TIP3      2472            0.0000000000
     21217      2573  TIP3      OH2            -4.1250252219      -15.5059943594      -39.1905113550  TIP3      2473            0.0000000000
     21218      2573  TIP3      H1             -3.6145491484      -16.0095555555      -38.5379960826  TIP3      2473            0.0000000000
     21219      2573  TIP3      H2             -4.0267494630      -14.5751225139      -38.8463244575  TIP3      2473            0.0000000000
     21220      2574  TIP3      OH2            -7.3597794795      -18.3477334605      -38.2655123465  TIP3      2474            0.0000000000
     21221      2574  TIP3      H1             -8.1344064789      -17.9581807014      -37.8003271032  TIP3      2474            0.0000000000
     21222      2574  TIP3      H2             -7.1130421257      -17.6323217661      -38.8815002175  TIP3      2474            0.0000000000
     21223      2575  TIP3      OH2             0.5703197171      -25.8084948556      -27.8874974008  TIP3      2475            0.0000000000
     21224      2575  TIP3      H1              1.4140044739      -25.8982656335      -27.4264081100  TIP3      2475            0.0000000000
     21225      2575  TIP3      H2              0.0385538933      -26.4564496794      -27.3729996913  TIP3      2475            0.0000000000
     21226      2576  TIP3      OH2             0.8411993861      -26.4045059307      -37.5136926185  TIP3      2476            0.0000000000
     21227      2576  TIP3      H1              1.4640734595      -25.9782406564      -38.1104411865  TIP3      2476            0.0000000000
     21228      2576  TIP3      H2              1.4586689472      -26.9743973637      -37.0146137850  TIP3      2476            0.0000000000
     21229      2577  TIP3      OH2            -0.9967200737      -13.8171667156      -38.3966805090  TIP3      2477            0.0000000000
     21230      2577  TIP3      H1             -1.6125986008      -13.1280476023      -38.0929631417  TIP3      2477            0.0000000000
     21231      2577  TIP3      H2             -0.8246415247      -13.5493078971      -39.3271445726  TIP3      2477            0.0000000000
     21232      2578  TIP3      OH2            -1.8169322930      -23.9792102862      -36.3174697415  TIP3      2478            0.0000000000
     21233      2578  TIP3      H1             -1.0510880306      -23.4100512107      -36.1503863569  TIP3      2478            0.0000000000
     21234      2578  TIP3      H2             -1.9676053656      -24.4030321543      -35.4453090844  TIP3      2478            0.0000000000
     21235      2579  TIP3      OH2            -0.4651176408      -23.2153814370      -27.3155032135  TIP3      2479            0.0000000000
     21236      2579  TIP3      H1             -0.1517408185      -23.1120892170      -26.4123384878  TIP3      2479            0.0000000000
     21237      2579  TIP3      H2             -0.0803447825      -24.0885266977      -27.5829827804  TIP3      2479            0.0000000000
     21238      2580  TIP3      OH2            -0.6443538924      -27.1009461220      -35.3801546313  TIP3      2480            0.0000000000
     21239      2580  TIP3      H1             -1.0387819053      -26.5005036070      -34.7028558590  TIP3      2480            0.0000000000
     21240      2580  TIP3      H2             -0.0477430936      -26.4901282077      -35.8684503401  TIP3      2480            0.0000000000
     21241      2581  TIP3      OH2            -3.9134657885      -12.9156619694      -38.4127398320  TIP3      2481            0.0000000000
     21242      2581  TIP3      H1             -3.6603505142      -12.0727798857      -38.8551125254  TIP3      2481            0.0000000000
     21243      2581  TIP3      H2             -4.1415815510      -12.5858161112      -37.5159873596  TIP3      2481            0.0000000000
     21244      2582  TIP3      OH2            -5.1774192301      -25.6247844075      -38.7376128596  TIP3      2482            0.0000000000
     21245      2582  TIP3      H1             -5.2571260809      -24.9880676158      -38.0034507560  TIP3      2482            0.0000000000
     21246      2582  TIP3      H2             -4.3322395307      -26.0563409506      -38.5060425834  TIP3      2482            0.0000000000
     21247      2583  TIP3      OH2             4.8174569829      -25.3623958190      -26.2425663630  TIP3      2483            0.0000000000
     21248      2583  TIP3      H1              3.8606680079      -25.1516488393      -26.3909213407  TIP3      2483            0.0000000000
     21249      2583  TIP3      H2              5.0701005345      -25.5870805389      -27.1611025276  TIP3      2483            0.0000000000
     21250      2584  TIP3      OH2             3.9654131391      -21.6836352996      -32.4345171165  TIP3      2484            0.0000000000
     21251      2584  TIP3      H1              3.3810703665      -22.4573366060      -32.5002209639  TIP3      2484            0.0000000000
     21252      2584  TIP3      H2              4.7314291389      -22.0683564475      -31.9375420207  TIP3      2484            0.0000000000
     21253      2585  TIP3      OH2            -6.6658173800      -15.6096537969      -40.1339365820  TIP3      2485            0.0000000000
     21254      2585  TIP3      H1             -5.8716997793      -15.4603915007      -39.5773852870  TIP3      2485            0.0000000000
     21255      2585  TIP3      H2             -6.3416358591      -16.3382559242      -40.6979066889  TIP3      2485            0.0000000000
     21256      2586  TIP3      OH2            -8.5793804776      -22.8860079307      -40.2277006092  TIP3      2486            0.0000000000
     21257      2586  TIP3      H1             -8.3167288071      -21.9530851031      -40.1457107115  TIP3      2486            0.0000000000
     21258      2586  TIP3      H2             -9.1134631405      -22.8812545579      -41.0323091477  TIP3      2486            0.0000000000
     21259      2587  TIP3      OH2             4.7892876870      -12.4347230039      -30.7338506297  TIP3      2487            0.0000000000
     21260      2587  TIP3      H1              4.9167819815      -11.8335336866      -31.4979235622  TIP3      2487            0.0000000000
     21261      2587  TIP3      H2              5.7218702924      -12.5656281965      -30.4819562507  TIP3      2487            0.0000000000
     21262      2588  TIP3      OH2            -7.7991223745      -28.1940110358      -31.7704776430  TIP3      2488            0.0000000000
     21263      2588  TIP3      H1             -7.8640614869      -28.2482954676      -32.7523920763  TIP3      2488            0.0000000000
     21264      2588  TIP3      H2             -7.8618700778      -29.1544386611      -31.5589289739  TIP3      2488            0.0000000000
     21265      2589  TIP3      OH2            -9.3234752609      -14.6706355369      -36.3048850706  TIP3      2489            0.0000000000
     21266      2589  TIP3      H1             -9.7130845785      -14.0373336896      -35.6832911342  TIP3      2489            0.0000000000
     21267      2589  TIP3      H2             -9.1054905479      -14.0629473059      -37.0544065465  TIP3      2489            0.0000000000
     21268      2590  TIP3      OH2            -9.4596516316      -11.7269912076      -24.7300911970  TIP3      2490            0.0000000000
     21269      2590  TIP3      H1             -8.9254177448      -11.9273055323      -23.9242632015  TIP3      2490            0.0000000000
     21270      2590  TIP3      H2             -9.9847951324      -12.5470315014      -24.7877325264  TIP3      2490            0.0000000000
     21271      2591  TIP3      OH2            -5.4748551182      -12.6528131134      -23.2135641283  TIP3      2491            0.0000000000
     21272      2591  TIP3      H1             -4.5132013547      -12.5450237654      -23.2238338311  TIP3      2491            0.0000000000
     21273      2591  TIP3      H2             -5.6090781089      -13.1548876706      -24.0552796939  TIP3      2491            0.0000000000
     21274      2592  TIP3      OH2            -0.9274707098      -13.1392178613      -41.0224848594  TIP3      2492            0.0000000000
     21275      2592  TIP3      H1             -1.3116472058      -14.0116480035      -41.1672697213  TIP3      2492            0.0000000000
     21276      2592  TIP3      H2             -0.6661971651      -12.9036095014      -41.9311971887  TIP3      2492            0.0000000000
     21277      2593  TIP3      OH2             1.2758596967      -14.6347158805      -23.9333392665  TIP3      2493            0.0000000000
     21278      2593  TIP3      H1              1.2177669589      -15.4377778378      -23.3883480607  TIP3      2493            0.0000000000
     21279      2593  TIP3      H2              2.1566404831      -14.2916609925      -23.6603110947  TIP3      2493            0.0000000000
     21280      2594  TIP3      OH2             4.2881390160      -13.7543091845      -41.2399818928  TIP3      2494            0.0000000000
     21281      2594  TIP3      H1              4.0293841666      -14.3690875342      -40.5264288207  TIP3      2494            0.0000000000
     21282      2594  TIP3      H2              5.2538267591      -13.8630875905      -41.1781996133  TIP3      2494            0.0000000000
     21283      2595  TIP3      OH2            -9.6711274673      -18.0918128068      -23.4351562035  TIP3      2495            0.0000000000
     21284      2595  TIP3      H1            -10.1053310527      -18.9639510075      -23.3340264021  TIP3      2495            0.0000000000
     21285      2595  TIP3      H2            -10.0973637742      -17.7727198438      -24.2566805256  TIP3      2495            0.0000000000
     21286      2596  TIP3      OH2            -4.9276553294      -17.5816020202      -41.1820370331  TIP3      2496            0.0000000000
     21287      2596  TIP3      H1             -4.2247029676      -17.6862887572      -40.5215913337  TIP3      2496            0.0000000000
     21288      2596  TIP3      H2             -4.6529168690      -18.2781902063      -41.8152039099  TIP3      2496            0.0000000000
     21289      2597  TIP3      OH2            -2.9602621545      -17.9740856988      -24.5259041202  TIP3      2497            0.0000000000
     21290      2597  TIP3      H1             -3.2921509466      -17.3152091500      -25.1808702746  TIP3      2497            0.0000000000
     21291      2597  TIP3      H2             -3.4559588924      -18.7862147235      -24.7576600823  TIP3      2497            0.0000000000
     21292      2598  TIP3      OH2             2.6866062865      -18.0926234226      -26.6266053238  TIP3      2498            0.0000000000
     21293      2598  TIP3      H1              3.5395446965      -17.6288665277      -26.7471501823  TIP3      2498            0.0000000000
     21294      2598  TIP3      H2              2.1623142455      -17.3323135072      -26.3056153190  TIP3      2498            0.0000000000
     21295      2599  TIP3      OH2            -8.7092213744      -21.0292965920      -23.2925242026  TIP3      2499            0.0000000000
     21296      2599  TIP3      H1             -7.8764728149      -21.0926086350      -23.7862964363  TIP3      2499            0.0000000000
     21297      2599  TIP3      H2             -8.9796241013      -21.9601223536      -23.3078258253  TIP3      2499            0.0000000000
     21298      2600  TIP3      OH2            -3.8881220040      -19.4465581958      -38.7556378363  TIP3      2500            0.0000000000
     21299      2600  TIP3      H1             -4.6518955787      -19.8970440056      -38.3573035756  TIP3      2500            0.0000000000
     21300      2600  TIP3      H2             -3.5639229866      -20.1429363794      -39.3669191509  TIP3      2500            0.0000000000
     21301      2601  TIP3      OH2            -5.2316338838      -21.8486953258      -27.6800084057  TIP3      2501            0.0000000000
     21302      2601  TIP3      H1             -5.6863092590      -21.0134166673      -27.4041642286  TIP3      2501            0.0000000000
     21303      2601  TIP3      H2             -4.3169812205      -21.4924403696      -27.7565698835  TIP3      2501            0.0000000000
     21304      2602  TIP3      OH2            -2.8395399150      -21.1719300746      -40.6798140978  TIP3      2502            0.0000000000
     21305      2602  TIP3      H1             -2.6701014675      -21.5241094112      -41.5613060861  TIP3      2502            0.0000000000
     21306      2602  TIP3      H2             -1.9283894789      -21.1494770873      -40.2971028567  TIP3      2502            0.0000000000
     21307      2603  TIP3      OH2             0.7572707037      -18.7573639510      -23.4938050473  TIP3      2503            0.0000000000
     21308      2603  TIP3      H1              1.1040717464      -19.4760289595      -24.0308282744  TIP3      2503            0.0000000000
     21309      2603  TIP3      H2             -0.1776182718      -18.9757919864      -23.4152771368  TIP3      2503            0.0000000000
     21310      2604  TIP3      OH2             6.0138450452      -18.7932624856      -41.7038449117  TIP3      2504            0.0000000000
     21311      2604  TIP3      H1              5.7921964367      -18.8642221543      -42.6498982020  TIP3      2504            0.0000000000
     21312      2604  TIP3      H2              6.1135940825      -17.8411348546      -41.6141589904  TIP3      2504            0.0000000000
     21313      2605  TIP3      OH2            -4.3526280747      -23.6723967405      -25.8997495382  TIP3      2505            0.0000000000
     21314      2605  TIP3      H1             -4.0927015877      -24.3105970647      -26.5990215175  TIP3      2505            0.0000000000
     21315      2605  TIP3      H2             -4.8620292235      -22.9883344753      -26.3934320916  TIP3      2505            0.0000000000
     21316      2606  TIP3      OH2            -3.6028601855      -25.8891577841      -27.7370257969  TIP3      2506            0.0000000000
     21317      2606  TIP3      H1             -3.1427726385      -25.5722725421      -28.5443702850  TIP3      2506            0.0000000000
     21318      2606  TIP3      H2             -4.5280608162      -25.9263920102      -28.0506754643  TIP3      2506            0.0000000000
     21319      2607  TIP3      OH2            -2.6647465061      -20.4781566500      -27.9577322276  TIP3      2507            0.0000000000
     21320      2607  TIP3      H1             -1.7230238516      -20.2674462112      -27.9033491921  TIP3      2507            0.0000000000
     21321      2607  TIP3      H2             -3.0644665618      -19.6463639252      -28.3045824041  TIP3      2507            0.0000000000
     21322      2608  TIP3      OH2             1.6890750125      -22.8014090036      -23.1695676843  TIP3      2508            0.0000000000
     21323      2608  TIP3      H1              1.1269405378      -22.8905504134      -22.3561270808  TIP3      2508            0.0000000000
     21324      2608  TIP3      H2              2.4001375201      -22.2235505051      -22.8734762850  TIP3      2508            0.0000000000
     21325      2609  TIP3      OH2             3.6998900470      -19.8356545267      -24.6250141179  TIP3      2509            0.0000000000
     21326      2609  TIP3      H1              3.2804760830      -19.2271585305      -25.2601601813  TIP3      2509            0.0000000000
     21327      2609  TIP3      H2              4.6359048303      -19.8108519036      -24.9262284580  TIP3      2509            0.0000000000
     21328      2610  TIP3      OH2            -6.3909897989      -22.8671716071      -23.9856344730  TIP3      2510            0.0000000000
     21329      2610  TIP3      H1             -6.7833194518      -23.7419528161      -23.8091871049  TIP3      2510            0.0000000000
     21330      2610  TIP3      H2             -5.5987041843      -23.1002530556      -24.4976813417  TIP3      2510            0.0000000000
     21331      2611  TIP3      OH2            -3.1594274325      -28.5616221842      -27.7872192867  TIP3      2511            0.0000000000
     21332      2611  TIP3      H1             -3.0586227081      -27.5853070158      -27.7068614840  TIP3      2511            0.0000000000
     21333      2611  TIP3      H2             -4.0705456591      -28.5842489426      -28.1129145222  TIP3      2511            0.0000000000
     21334      2612  TIP3      OH2            -1.9515785965      -23.9324312265      -24.1899558262  TIP3      2512            0.0000000000
     21335      2612  TIP3      H1             -2.1270495892      -24.4158482367      -23.3660928535  TIP3      2512            0.0000000000
     21336      2612  TIP3      H2             -2.7705874352      -24.0928601787      -24.7080175154  TIP3      2512            0.0000000000
     21337      2613  TIP3      OH2             0.6750662820      -25.2207030204      -24.6012527114  TIP3      2513            0.0000000000
     21338      2613  TIP3      H1             -0.2139891703      -24.9220294671      -24.3608569522  TIP3      2513            0.0000000000
     21339      2613  TIP3      H2              1.1119877965      -25.2523582593      -23.7368382209  TIP3      2513            0.0000000000
     21340      2614  TIP3      OH2             2.5811237784      -26.6910927143      -22.2718831635  TIP3      2514            0.0000000000
     21341      2614  TIP3      H1              1.8612846640      -27.2131078270      -22.6475360227  TIP3      2514            0.0000000000
     21342      2614  TIP3      H2              2.0575912106      -26.2266793795      -21.5604748845  TIP3      2514            0.0000000000
     21343      2615  TIP3      OH2            -7.7763302551      -25.2482391964      -23.4458126830  TIP3      2515            0.0000000000
     21344      2615  TIP3      H1             -7.7698767703      -26.0035975990      -24.0697392955  TIP3      2515            0.0000000000
     21345      2615  TIP3      H2             -7.8926546803      -25.7009134910      -22.5903675281  TIP3      2515            0.0000000000
     21346      2616  TIP3      OH2            -2.1876486352      -29.0642305564      -24.9736645758  TIP3      2516            0.0000000000
     21347      2616  TIP3      H1             -2.7927755008      -29.7818227916      -24.7423895260  TIP3      2516            0.0000000000
     21348      2616  TIP3      H2             -2.5891434430      -28.7280987180      -25.7863007436  TIP3      2516            0.0000000000
     21349      2617  TIP3      OH2            -2.8618775851      -28.6886941832      -22.3612462222  TIP3      2517            0.0000000000
     21350      2617  TIP3      H1             -2.4427371864      -28.5350318608      -23.2333574145  TIP3      2517            0.0000000000
     21351      2617  TIP3      H2             -3.4963210993      -27.9630863813      -22.3019677161  TIP3      2517            0.0000000000
     21352      2618  TIP3      OH2            -3.1212624743      -10.7933382185      -39.9400822505  TIP3      2518            0.0000000000
     21353      2618  TIP3      H1             -2.2215692288      -10.5879102312      -39.6363604371  TIP3      2518            0.0000000000
     21354      2618  TIP3      H2             -3.1081959836      -10.5249058619      -40.8825728410  TIP3      2518            0.0000000000
     21355      2619  TIP3      OH2            -9.4663913071      -15.8712755920      -40.1911157475  TIP3      2519            0.0000000000
     21356      2619  TIP3      H1             -8.6248522462      -15.3867104675      -40.0825921466  TIP3      2519            0.0000000000
     21357      2619  TIP3      H2             -9.3224859616      -16.1938721954      -41.1080823303  TIP3      2519            0.0000000000
     21358      2620  TIP3      OH2           -10.5274495859      -11.1131047241      -35.4401691930  TIP3      2520            0.0000000000
     21359      2620  TIP3      H1            -11.3730455649      -11.5358160293      -35.7331156493  TIP3      2520            0.0000000000
     21360      2620  TIP3      H2            -10.2995233770      -11.6226009111      -34.6412381072  TIP3      2520            0.0000000000
     21361      2621  TIP3      OH2            -9.8152741037      -12.7293547194      -33.3321557725  TIP3      2521            0.0000000000
     21362      2621  TIP3      H1            -10.5722814348      -13.2743739225      -33.0496538289  TIP3      2521            0.0000000000
     21363      2621  TIP3      H2             -9.4145199797      -12.4863613601      -32.4729753640  TIP3      2521            0.0000000000
     21364      2622  TIP3      OH2             7.7177997982      -12.0209654673      -30.5978651998  TIP3      2522            0.0000000000
     21365      2622  TIP3      H1              8.0049097586      -11.8621310235      -29.6831247452  TIP3      2522            0.0000000000
     21366      2622  TIP3      H2              7.7250936155      -11.1327055216      -30.9803529301  TIP3      2522            0.0000000000
     21367      2623  TIP3      OH2             7.1008867414      -12.3901601006      -27.4980951056  TIP3      2523            0.0000000000
     21368      2623  TIP3      H1              6.6961426845      -13.0577199792      -28.0959774767  TIP3      2523            0.0000000000
     21369      2623  TIP3      H2              7.3486640055      -12.9949011497      -26.7621621728  TIP3      2523            0.0000000000
     21370      2624  TIP3      OH2             6.2161002097      -16.3429123150      -22.8721929945  TIP3      2524            0.0000000000
     21371      2624  TIP3      H1              5.3013483827      -16.4898053312      -22.5863960911  TIP3      2524            0.0000000000
     21372      2624  TIP3      H2              6.7006613004      -16.9632583047      -22.2885230269  TIP3      2524            0.0000000000
     21373      2625  TIP3      OH2             6.7460082160      -17.8430433613      -37.6990574750  TIP3      2525            0.0000000000
     21374      2625  TIP3      H1              7.6460562578      -17.5049421822      -37.4710403328  TIP3      2525            0.0000000000
     21375      2625  TIP3      H2              6.6787575891      -18.5783430692      -37.0501552640  TIP3      2525            0.0000000000
     21376      2626  TIP3      OH2             7.2296452625      -19.7630296669      -35.8685652245  TIP3      2526            0.0000000000
     21377      2626  TIP3      H1              6.6255606324      -20.3222200835      -35.3344606641  TIP3      2526            0.0000000000
     21378      2626  TIP3      H2              7.9148114520      -19.5750278441      -35.2079732498  TIP3      2526            0.0000000000
     21379      2627  TIP3      OH2             7.0606320095      -17.2571394205      -30.7789981308  TIP3      2527            0.0000000000
     21380      2627  TIP3      H1              7.7314658779      -17.9383104053      -30.9940527056  TIP3      2527            0.0000000000
     21381      2627  TIP3      H2              7.5025791868      -16.4572382842      -31.1022534057  TIP3      2527            0.0000000000
     21382      2628  TIP3      OH2             5.7125693710      -14.5410192307      -28.3935405402  TIP3      2528            0.0000000000
     21383      2628  TIP3      H1              5.0494346532      -14.1647447230      -27.7826795986  TIP3      2528            0.0000000000
     21384      2628  TIP3      H2              5.1713423427      -14.7865687531      -29.1778448287  TIP3      2528            0.0000000000
     21385      2629  TIP3      OH2             7.5724357096      -20.4893339376      -38.9501744418  TIP3      2529            0.0000000000
     21386      2629  TIP3      H1              6.7449644296      -20.5410820357      -39.4451577705  TIP3      2529            0.0000000000
     21387      2629  TIP3      H2              7.4579767389      -19.6627782890      -38.4547813646  TIP3      2529            0.0000000000
     21388      2630  TIP3      OH2             6.2113745610      -22.9886909960      -40.7556764029  TIP3      2530            0.0000000000
     21389      2630  TIP3      H1              6.2769302540      -22.5882015364      -41.6343927814  TIP3      2530            0.0000000000
     21390      2630  TIP3      H2              5.7550169518      -23.8202152753      -41.0074122056  TIP3      2530            0.0000000000
     21391      2631  TIP3      OH2             5.5169695984      -21.4785128901      -34.6079620346  TIP3      2531            0.0000000000
     21392      2631  TIP3      H1              4.9422636802      -22.2189073228      -34.8466807665  TIP3      2531            0.0000000000
     21393      2631  TIP3      H2              5.1889094592      -21.3458878400      -33.6934015189  TIP3      2531            0.0000000000
     21394      2632  TIP3      OH2            -9.8164735340      -19.2559282283      -30.6356570579  TIP3      2532            0.0000000000
     21395      2632  TIP3      H1             -9.7110852339      -19.5480706346      -31.5737436231  TIP3      2532            0.0000000000
     21396      2632  TIP3      H2             -8.9416749044      -19.5399503812      -30.2558702903  TIP3      2532            0.0000000000
     21397      2633  TIP3      OH2             6.3411334705      -19.6412826895      -25.2928659724  TIP3      2533            0.0000000000
     21398      2633  TIP3      H1              6.8328234854      -20.3644542192      -24.8691589489  TIP3      2533            0.0000000000
     21399      2633  TIP3      H2              6.9287885073      -18.8725545109      -25.1495908702  TIP3      2533            0.0000000000
     21400      2634  TIP3      OH2             7.7174640293      -22.1685539360      -24.8651026587  TIP3      2534            0.0000000000
     21401      2634  TIP3      H1              6.7409542394      -22.2004892905      -24.9114301424  TIP3      2534            0.0000000000
     21402      2634  TIP3      H2              7.9034801867      -23.1231495976      -24.7465457260  TIP3      2534            0.0000000000
     21403      2635  TIP3      OH2             5.0783880699      -25.2692886871      -41.5787700376  TIP3      2535            0.0000000000
     21404      2635  TIP3      H1              5.6361394018      -26.0109870502      -41.2859896259  TIP3      2535            0.0000000000
     21405      2635  TIP3      H2              4.1911813126      -25.5983915338      -41.3375884768  TIP3      2535            0.0000000000
     21406      2636  TIP3      OH2             4.2070235919      -23.6474639232      -36.1367120087  TIP3      2536            0.0000000000
     21407      2636  TIP3      H1              4.6231003075      -24.5435198760      -36.1746025037  TIP3      2536            0.0000000000
     21408      2636  TIP3      H2              4.9152616695      -23.1178407321      -36.5343309220  TIP3      2536            0.0000000000
     21409      2637  TIP3      OH2             5.7379604965      -23.0074759243      -31.0447747914  TIP3      2537            0.0000000000
     21410      2637  TIP3      H1              6.7186035994      -23.0007129988      -31.0215914024  TIP3      2537            0.0000000000
     21411      2637  TIP3      H2              5.5887211303      -22.9204888931      -30.0806236879  TIP3      2537            0.0000000000
     21412      2638  TIP3      OH2             5.5731692381      -22.5571448140      -28.3962455362  TIP3      2538            0.0000000000
     21413      2638  TIP3      H1              4.8517571536      -22.3830124120      -27.7554169670  TIP3      2538            0.0000000000
     21414      2638  TIP3      H2              6.0397509200      -21.6934813031      -28.4144527067  TIP3      2538            0.0000000000
     21415      2639  TIP3      OH2           -10.0022576135      -24.4684022885      -24.8468934425  TIP3      2539            0.0000000000
     21416      2639  TIP3      H1             -9.1151583708      -24.5674054270      -24.4524233180  TIP3      2539            0.0000000000
     21417      2639  TIP3      H2            -10.3815825137      -25.3374642317      -24.5804931226  TIP3      2539            0.0000000000
     21418      2640  TIP3      OH2             8.0423716212      -29.1872970896      -23.4432365363  TIP3      2540            0.0000000000
     21419      2640  TIP3      H1              8.3879742269      -29.6353126639      -24.2291461132  TIP3      2540            0.0000000000
     21420      2640  TIP3      H2              7.7081533943      -28.3655220490      -23.8052724186  TIP3      2540            0.0000000000
     21421      2641  TIP3      OH2             5.3134196178      -26.2447436208      -36.0870227875  TIP3      2541            0.0000000000
     21422      2641  TIP3      H1              5.7115249753      -26.8442357457      -35.4325618234  TIP3      2541            0.0000000000
     21423      2641  TIP3      H2              4.6623273086      -26.8373253961      -36.5299447700  TIP3      2541            0.0000000000
     21424      2642  TIP3      OH2            -9.1249228393      -25.8469527849      -31.8319422702  TIP3      2542            0.0000000000
     21425      2642  TIP3      H1             -8.7546802610      -26.7456786551      -31.6952350177  TIP3      2542            0.0000000000
     21426      2642  TIP3      H2             -8.3240090144      -25.3077392264      -31.7261705085  TIP3      2542            0.0000000000
     21427      2643  TIP3      OH2           -10.5369846641      -22.9783941925      -30.6316003865  TIP3      2543            0.0000000000
     21428      2643  TIP3      H1            -10.0938291710      -23.3352609085      -31.4176628865  TIP3      2543            0.0000000000
     21429      2643  TIP3      H2             -9.8882030607      -22.2976722388      -30.3937702599  TIP3      2543            0.0000000000
     21430      2644  TIP3      OH2             6.2616434980      -26.8282489684      -24.4529666181  TIP3      2544            0.0000000000
     21431      2644  TIP3      H1              5.6515670619      -26.2845832079      -25.0158308452  TIP3      2544            0.0000000000
     21432      2644  TIP3      H2              6.4224597573      -27.5531947775      -25.0985082006  TIP3      2544            0.0000000000
     21433      2645  TIP3      OH2             7.4738073753      -26.8575577236      -39.8755536283  TIP3      2545            0.0000000000
     21434      2645  TIP3      H1              7.4008225225      -26.9074089334      -40.8517066430  TIP3      2545            0.0000000000
     21435      2645  TIP3      H2              8.0234529358      -26.0563202850      -39.7657696225  TIP3      2545            0.0000000000
     21436      2646  TIP3      OH2           -10.4385085836      -26.4139998990      -36.7697884154  TIP3      2546            0.0000000000
     21437      2646  TIP3      H1            -11.2862626397      -25.9501490933      -36.7969669290  TIP3      2546            0.0000000000
     21438      2646  TIP3      H2            -10.0249311324      -26.0024161949      -37.5556334302  TIP3      2546            0.0000000000
     21439      2647  TIP3      OH2             4.2306056507      -11.7325310869      -34.7084398188  TIP3      2547            0.0000000000
     21440      2647  TIP3      H1              5.0411673749      -11.7531474943      -35.2534490254  TIP3      2547            0.0000000000
     21441      2647  TIP3      H2              4.5010318320      -11.1478785081      -33.9713756058  TIP3      2547            0.0000000000
     21442      2648  TIP3      OH2           -10.2285482217      -28.1332638514      -28.6031627682  TIP3      2548            0.0000000000
     21443      2648  TIP3      H1            -10.6524557264      -28.0425570969      -27.7421357617  TIP3      2548            0.0000000000
     21444      2648  TIP3      H2            -10.6789062428      -27.4473215490      -29.1271232041  TIP3      2548            0.0000000000
     21445      2649  TIP3      OH2            -8.1304445565      -14.9867069696      -24.4653400006  TIP3      2549            0.0000000000
     21446      2649  TIP3      H1             -8.8027806475      -14.4849142519      -24.9543531446  TIP3      2549            0.0000000000
     21447      2649  TIP3      H2             -8.6619675199      -15.4120323999      -23.7904592805  TIP3      2549            0.0000000000
     21448      2650  TIP3      OH2            -5.2816186705      -13.2347654083      -27.7382740822  TIP3      2550            0.0000000000
     21449      2650  TIP3      H1             -5.1890776744      -12.3457847716      -28.1501658949  TIP3      2550            0.0000000000
     21450      2650  TIP3      H2             -4.3722192985      -13.5625315273      -27.8736040271  TIP3      2550            0.0000000000
     21451      2651  TIP3      OH2            -0.9349858504      -12.3886818711      -25.3323113894  TIP3      2551            0.0000000000
     21452      2651  TIP3      H1             -0.8927786145      -12.5002272536      -24.3585687723  TIP3      2551            0.0000000000
     21453      2651  TIP3      H2             -0.1937969709      -11.7682776386      -25.5091510419  TIP3      2551            0.0000000000
     21454      2652  TIP3      OH2             1.0007262738      -10.5413775640      -25.7938759956  TIP3      2552            0.0000000000
     21455      2652  TIP3      H1              1.8177976158      -10.7602761423      -26.2660279836  TIP3      2552            0.0000000000
     21456      2652  TIP3      H2              1.3402657581      -10.3291080514      -24.8991108497  TIP3      2552            0.0000000000
     21457      2653  TIP3      OH2             6.3161274035      -28.5909422477      -26.4891005705  TIP3      2553            0.0000000000
     21458      2653  TIP3      H1              5.8712554553      -27.9721970404      -27.0864423346  TIP3      2553            0.0000000000
     21459      2653  TIP3      H2              6.1108073867      -29.4854124475      -26.8218918105  TIP3      2553            0.0000000000
     21460      2654  TIP3      OH2            -7.8847992728      -10.4210801132      -28.2321142006  TIP3      2554            0.0000000000
     21461      2654  TIP3      H1             -8.7020709640      -10.0528210801      -28.6198432470  TIP3      2554            0.0000000000
     21462      2654  TIP3      H2             -7.9943242154      -10.1827968767      -27.2984529055  TIP3      2554            0.0000000000
     21463      2655  TIP3      OH2            -5.3209484189      -10.8749839904      -28.9954101548  TIP3      2555            0.0000000000
     21464      2655  TIP3      H1             -6.2641062544      -10.7245529833      -28.7296739195  TIP3      2555            0.0000000000
     21465      2655  TIP3      H2             -5.2844379187      -10.3163866803      -29.7965555007  TIP3      2555            0.0000000000
     21466      2656  TIP3      OH2            -1.0171055957      -11.3237315059      -29.6969005018  TIP3      2556            0.0000000000
     21467      2656  TIP3      H1             -1.7926046099      -10.7713377813      -29.8859472971  TIP3      2556            0.0000000000
     21468      2656  TIP3      H2             -0.4771062208      -10.6878633757      -29.1738255676  TIP3      2556            0.0000000000
     21469      2657  TIP3      OH2             1.2756103047      -12.5994968120      -28.4227020355  TIP3      2557            0.0000000000
     21470      2657  TIP3      H1              0.6365701896      -12.3376311225      -29.1104359770  TIP3      2557            0.0000000000
     21471      2657  TIP3      H2              1.9602777704      -11.9300873891      -28.5864664417  TIP3      2557            0.0000000000
     21472      2658  TIP3      OH2             3.7092181402      -10.7849404796      -28.8930656564  TIP3      2558            0.0000000000
     21473      2658  TIP3      H1              3.9303424027       -9.9097796814      -29.2828834620  TIP3      2558            0.0000000000
     21474      2658  TIP3      H2              3.9879153665      -11.3731715662      -29.6301771799  TIP3      2558            0.0000000000
     21475      2659  TIP3      OH2            -8.1919074687      -11.9127616217      -30.9731770920  TIP3      2559            0.0000000000
     21476      2659  TIP3      H1             -8.2821635317      -12.4438124380      -30.1501665795  TIP3      2559            0.0000000000
     21477      2659  TIP3      H2             -7.3838289032      -12.2927359023      -31.3679040361  TIP3      2559            0.0000000000
     21478      2660  TIP3      OH2            -6.0537587266      -12.9872146206      -32.4155746129  TIP3      2560            0.0000000000
     21479      2660  TIP3      H1             -6.1903013392      -13.9377874559      -32.1967593767  TIP3      2560            0.0000000000
     21480      2660  TIP3      H2             -5.2291496442      -12.8439048882      -31.8895183082  TIP3      2560            0.0000000000
     21481      2661  TIP3      OH2            -3.8538621322      -13.1168539287      -30.9046015769  TIP3      2561            0.0000000000
     21482      2661  TIP3      H1             -3.4773394033      -13.9965482201      -31.0773438436  TIP3      2561            0.0000000000
     21483      2661  TIP3      H2             -3.7884749962      -13.0872971448      -29.9306591582  TIP3      2561            0.0000000000
     21484      2662  TIP3      OH2            -0.1071323234      -26.9555331464      -32.2078778258  TIP3      2562            0.0000000000
     21485      2662  TIP3      H1             -0.9343499221      -27.4609573559      -32.2872611001  TIP3      2562            0.0000000000
     21486      2662  TIP3      H2              0.5083781655      -27.6274363815      -32.5347993489  TIP3      2562            0.0000000000
     21487      2663  TIP3      OH2             4.7770599404      -28.2215179162      -32.2783068720  TIP3      2563            0.0000000000
     21488      2663  TIP3      H1              5.3578426293      -28.0968654355      -33.0453615149  TIP3      2563            0.0000000000
     21489      2663  TIP3      H2              3.9279382010      -28.4196060889      -32.7276966151  TIP3      2563            0.0000000000
     21490      2664  TIP3      OH2             7.0080007825      -27.7898189603      -34.2654642644  TIP3      2564            0.0000000000
     21491      2664  TIP3      H1              7.2906375355      -27.7857186906      -35.1958001359  TIP3      2564            0.0000000000
     21492      2664  TIP3      H2              7.3666260199      -26.9099537969      -34.0061676873  TIP3      2564            0.0000000000
     21493      2665  TIP3      OH2            -7.8611933316      -28.5132056824      -34.4878344145  TIP3      2565            0.0000000000
     21494      2665  TIP3      H1             -8.3085051737      -28.4390676522      -35.3355066512  TIP3      2565            0.0000000000
     21495      2665  TIP3      H2             -7.7430931079      -29.4959499559      -34.4172719123  TIP3      2565            0.0000000000
     21496      2666  TIP3      OH2            -9.2809284384      -28.4316669426      -38.9299262010  TIP3      2566            0.0000000000
     21497      2666  TIP3      H1             -9.2186247127      -28.0106827836      -39.8017074815  TIP3      2566            0.0000000000
     21498      2666  TIP3      H2             -9.9197007432      -27.8605857839      -38.4725294121  TIP3      2566            0.0000000000
     21499      2667  TIP3      OH2            -2.9961794884      -28.6096623784      -35.1663311694  TIP3      2567            0.0000000000
     21500      2667  TIP3      H1             -2.3289226691      -27.9302049583      -35.3678470704  TIP3      2567            0.0000000000
     21501      2667  TIP3      H2             -2.9653989683      -28.6261648722      -34.1947562766  TIP3      2567            0.0000000000
     21502      2668  TIP3      OH2             2.4453355754      -28.7510906678      -33.5094052890  TIP3      2568            0.0000000000
     21503      2668  TIP3      H1              2.2340416378      -28.4444500432      -34.4063386501  TIP3      2568            0.0000000000
     21504      2668  TIP3      H2              2.2382786630      -29.7121066863      -33.6123552807  TIP3      2568            0.0000000000
     21505      2669  TIP3      OH2             3.2135093550      -27.9473832703      -37.0507102415  TIP3      2569            0.0000000000
     21506      2669  TIP3      H1              3.1313259105      -28.0502627404      -38.0311155039  TIP3      2569            0.0000000000
     21507      2669  TIP3      H2              3.3516095266      -28.8944305277      -36.8732685929  TIP3      2569            0.0000000000
     21508      2670  TIP3      OH2            -9.2968006586      -12.6699459078      -38.0823477604  TIP3      2570            0.0000000000
     21509      2670  TIP3      H1            -10.2157607194      -12.5083283239      -38.3587111032  TIP3      2570            0.0000000000
     21510      2670  TIP3      H2             -8.9428999264      -11.7702662515      -38.1777074977  TIP3      2570            0.0000000000
     21511      2671  TIP3      OH2            -7.8419059945      -26.5305663237      -40.7403947838  TIP3      2571            0.0000000000
     21512      2671  TIP3      H1             -6.9968966810      -26.9424717753      -40.9509462102  TIP3      2571            0.0000000000
     21513      2671  TIP3      H2             -7.6147983052      -26.0404633473      -39.9353503751  TIP3      2571            0.0000000000
     21514      2672  TIP3      OH2            -2.5438586822      -26.5779625292      -38.0632075552  TIP3      2572            0.0000000000
     21515      2672  TIP3      H1             -2.0442853202      -27.2848291927      -37.6240461630  TIP3      2572            0.0000000000
     21516      2672  TIP3      H2             -2.1707664100      -25.7809551286      -37.6312524932  TIP3      2572            0.0000000000
     21517      2673  TIP3      OH2            -0.3596866045      -10.7733082369      -39.6606795479  TIP3      2573            0.0000000000
     21518      2673  TIP3      H1              0.6070942390      -10.8106640164      -39.7621125094  TIP3      2573            0.0000000000
     21519      2673  TIP3      H2             -0.5940120358      -11.5788730341      -40.1737556490  TIP3      2573            0.0000000000
     21520      2674  TIP3      OH2             6.1410409197      -11.9856900656      -36.5444305956  TIP3      2574            0.0000000000
     21521      2674  TIP3      H1              5.9462839944      -12.8237145341      -37.0333131547  TIP3      2574            0.0000000000
     21522      2674  TIP3      H2              6.1136717370      -11.3401822520      -37.2755427802  TIP3      2574            0.0000000000
     21523      2675  TIP3      OH2            -7.9845684040      -27.5533974495      -25.2578738232  TIP3      2575            0.0000000000
     21524      2675  TIP3      H1             -8.3252328697      -28.4626150367      -25.3323458266  TIP3      2575            0.0000000000
     21525      2675  TIP3      H2             -7.2724974559      -27.7440704541      -24.5989677030  TIP3      2575            0.0000000000
     21526      2676  TIP3      OH2            -6.2246658880      -28.1495046041      -23.4017744341  TIP3      2576            0.0000000000
     21527      2676  TIP3      H1             -6.0409817547      -27.6139465243      -22.5859794621  TIP3      2576            0.0000000000
     21528      2676  TIP3      H2             -6.0336298149      -29.0503520729      -23.0845065166  TIP3      2576            0.0000000000
     21529      2677  TIP3      OH2            -7.3619671224      -11.5122028599      -40.9703871251  TIP3      2577            0.0000000000
     21530      2677  TIP3      H1             -7.7181378504      -10.9781292749      -40.2420589615  TIP3      2577            0.0000000000
     21531      2677  TIP3      H2             -7.1094896099      -12.3224678651      -40.5096689813  TIP3      2577            0.0000000000
     21532      2678  TIP3      OH2             2.0427498678      -29.6141213961      -23.7764721731  TIP3      2578            0.0000000000
     21533      2678  TIP3      H1              2.3499766136      -29.4282046491      -22.8825830559  TIP3      2578            0.0000000000
     21534      2678  TIP3      H2              2.7850966067      -29.3266878235      -24.3310569795  TIP3      2578            0.0000000000
     21535      2679  TIP3      OH2             5.4579682754      -13.0328164497      -24.8016731269  TIP3      2579            0.0000000000
     21536      2679  TIP3      H1              4.9022394048      -13.0007212386      -25.6124528206  TIP3      2579            0.0000000000
     21537      2679  TIP3      H2              5.4392048128      -12.0887057872      -24.5497778627  TIP3      2579            0.0000000000
     21538      2680  TIP3      OH2            20.3385160772      -19.1663500236      -34.7409780162  TIP3      2580            0.0000000000
     21539      2680  TIP3      H1             20.3878960432      -18.3390939210      -34.2214294833  TIP3      2580            0.0000000000
     21540      2680  TIP3      H2             19.5945157534      -18.9734435189      -35.3373066511  TIP3      2580            0.0000000000
     21541      2681  TIP3      OH2            19.0057564270      -20.4211030713      -31.5118872877  TIP3      2581            0.0000000000
     21542      2681  TIP3      H1             19.0509549016      -20.8028871836      -30.6115338274  TIP3      2581            0.0000000000
     21543      2681  TIP3      H2             18.2158733956      -20.8565139324      -31.8733809586  TIP3      2581            0.0000000000
     21544      2682  TIP3      OH2            11.0871668055      -20.4777810170      -29.6601822302  TIP3      2582            0.0000000000
     21545      2682  TIP3      H1             10.9011035150      -21.2266666797      -29.0725196590  TIP3      2582            0.0000000000
     21546      2682  TIP3      H2             12.0582964881      -20.5481252728      -29.7696631235  TIP3      2582            0.0000000000
     21547      2683  TIP3      OH2            22.0213893857      -17.3458404390      -32.7231181580  TIP3      2583            0.0000000000
     21548      2683  TIP3      H1             22.1377010549      -18.0739295400      -32.0793849679  TIP3      2583            0.0000000000
     21549      2683  TIP3      H2             22.3146971060      -16.5691070931      -32.2096878485  TIP3      2583            0.0000000000
     21550      2684  TIP3      OH2            12.2831225326      -15.8499748439      -31.2853339346  TIP3      2584            0.0000000000
     21551      2684  TIP3      H1             11.9051291472      -16.6601281554      -31.6865772341  TIP3      2584            0.0000000000
     21552      2684  TIP3      H2             13.2361404557      -16.0241682813      -31.4489600494  TIP3      2584            0.0000000000
     21553      2685  TIP3      OH2             9.0561814254      -22.7275563022      -35.9134998709  TIP3      2585            0.0000000000
     21554      2685  TIP3      H1              8.6119554800      -22.0478408027      -35.3877117022  TIP3      2585            0.0000000000
     21555      2685  TIP3      H2              8.3997279572      -22.8545646123      -36.6216016045  TIP3      2585            0.0000000000
     21556      2686  TIP3      OH2             9.2311300908      -20.1504946590      -33.3172413097  TIP3      2586            0.0000000000
     21557      2686  TIP3      H1              9.5841254913      -21.0622472060      -33.1778939843  TIP3      2586            0.0000000000
     21558      2686  TIP3      H2             10.0229798328      -19.6237841050      -33.5193204414  TIP3      2586            0.0000000000
     21559      2687  TIP3      OH2            19.5254968555      -11.6991494860      -32.8300542987  TIP3      2587            0.0000000000
     21560      2687  TIP3      H1             20.2277881578      -12.2728819925      -33.2294428153  TIP3      2587            0.0000000000
     21561      2687  TIP3      H2             19.2715860518      -12.3142670160      -32.1288704587  TIP3      2587            0.0000000000
     21562      2688  TIP3      OH2            17.1498679397      -17.3891058227      -30.4171838721  TIP3      2588            0.0000000000
     21563      2688  TIP3      H1             17.4731160303      -17.9600775095      -31.1314601404  TIP3      2588            0.0000000000
     21564      2688  TIP3      H2             17.9901847555      -17.2107862871      -29.9418284546  TIP3      2588            0.0000000000
     21565      2689  TIP3      OH2            25.3254584681      -26.5410662528      -29.9614186765  TIP3      2589            0.0000000000
     21566      2689  TIP3      H1             25.7278865514      -25.7459061196      -29.5490828440  TIP3      2589            0.0000000000
     21567      2689  TIP3      H2             25.7127156557      -26.5412041451      -30.8486228202  TIP3      2589            0.0000000000
     21568      2690  TIP3      OH2            20.7544320551      -23.0913444359      -30.0627719296  TIP3      2590            0.0000000000
     21569      2690  TIP3      H1             21.0583207163      -23.9441980546      -29.7054259690  TIP3      2590            0.0000000000
     21570      2690  TIP3      H2             20.7645982671      -23.3067434651      -31.0158289953  TIP3      2590            0.0000000000
     21571      2691  TIP3      OH2            13.6115307327      -25.1825293749      -33.4473019711  TIP3      2591            0.0000000000
     21572      2691  TIP3      H1             13.8454993834      -24.3408530410      -33.8969367772  TIP3      2591            0.0000000000
     21573      2691  TIP3      H2             13.1556098449      -25.6104939614      -34.2019143351  TIP3      2591            0.0000000000
     21574      2692  TIP3      OH2            21.0434781623      -25.1502851730      -34.5900851293  TIP3      2592            0.0000000000
     21575      2692  TIP3      H1             21.6169579628      -25.4909766547      -33.8639400287  TIP3      2592            0.0000000000
     21576      2692  TIP3      H2             21.5814299643      -24.4236692330      -34.9292963881  TIP3      2592            0.0000000000
     21577      2693  TIP3      OH2            10.1674909200      -22.6699606117      -32.5650153610  TIP3      2593            0.0000000000
     21578      2693  TIP3      H1             10.7564777585      -23.1071603292      -31.9200493012  TIP3      2593            0.0000000000
     21579      2693  TIP3      H2             10.4488021203      -23.0850682414      -33.4062039041  TIP3      2593            0.0000000000
     21580      2694  TIP3      OH2            14.7568910608      -21.0805581070      -32.8821016871  TIP3      2594            0.0000000000
     21581      2694  TIP3      H1             15.6644898141      -21.3594679692      -32.6137357123  TIP3      2594            0.0000000000
     21582      2694  TIP3      H2             14.5633590077      -21.8160727335      -33.5059576412  TIP3      2594            0.0000000000
     21583      2695  TIP3      OH2            26.1441532549      -24.7040042563      -27.9283370136  TIP3      2595            0.0000000000
     21584      2695  TIP3      H1             25.7071742832      -23.8350403333      -28.0805241702  TIP3      2595            0.0000000000
     21585      2695  TIP3      H2             26.5038684176      -24.5622271733      -27.0376676957  TIP3      2595            0.0000000000
     21586      2696  TIP3      OH2            12.6991796932      -26.2568923234      -29.2634522854  TIP3      2596            0.0000000000
     21587      2696  TIP3      H1             12.2839705465      -25.7167494946      -29.9723508450  TIP3      2596            0.0000000000
     21588      2696  TIP3      H2             11.9355119687      -26.5487872953      -28.7393487079  TIP3      2596            0.0000000000
     21589      2697  TIP3      OH2            19.4501592340      -16.4727392552      -35.6352797256  TIP3      2597            0.0000000000
     21590      2697  TIP3      H1             19.3089777932      -16.5545823207      -36.6043380747  TIP3      2597            0.0000000000
     21591      2697  TIP3      H2             19.3105503407      -15.5222644011      -35.5114981391  TIP3      2597            0.0000000000
     21592      2698  TIP3      OH2            14.8337812961      -18.3649410836      -29.4768482568  TIP3      2598            0.0000000000
     21593      2698  TIP3      H1             14.3003820929      -17.6032414618      -29.1464582863  TIP3      2598            0.0000000000
     21594      2698  TIP3      H2             15.6261491959      -17.8914301145      -29.8181855806  TIP3      2598            0.0000000000
     21595      2699  TIP3      OH2            22.9933525359      -25.3606697863      -32.5893980189  TIP3      2599            0.0000000000
     21596      2699  TIP3      H1             23.0450521759      -26.2839400540      -32.2474192867  TIP3      2599            0.0000000000
     21597      2699  TIP3      H2             23.4243141908      -24.8383394911      -31.8786308603  TIP3      2599            0.0000000000
     21598      2700  TIP3      OH2            12.2121628373      -24.2228660985      -31.2548944001  TIP3      2600            0.0000000000
     21599      2700  TIP3      H1             12.7829428629      -23.5662002263      -30.8005295164  TIP3      2600            0.0000000000
     21600      2700  TIP3      H2             12.7811494975      -24.4793677240      -32.0140215125  TIP3      2600            0.0000000000
     21601      2701  TIP3      OH2            13.5189974490      -16.3366469773      -28.3584050474  TIP3      2601            0.0000000000
     21602      2701  TIP3      H1             13.1567784980      -15.7851013227      -29.0710857676  TIP3      2601            0.0000000000
     21603      2701  TIP3      H2             12.7006601730      -16.4649928408      -27.8123334742  TIP3      2601            0.0000000000
     21604      2702  TIP3      OH2             9.2548642127      -16.9818775584      -37.3528923023  TIP3      2602            0.0000000000
     21605      2702  TIP3      H1              9.2615729379      -16.5780064065      -38.2485131089  TIP3      2602            0.0000000000
     21606      2702  TIP3      H2              9.3502092772      -16.1739578367      -36.7927586535  TIP3      2602            0.0000000000
     21607      2703  TIP3      OH2            23.0325663634      -15.2470005062      -30.9805297462  TIP3      2603            0.0000000000
     21608      2703  TIP3      H1             22.1438952686      -14.9763465742      -30.6610575015  TIP3      2603            0.0000000000
     21609      2703  TIP3      H2             23.3645878039      -14.3929556495      -31.3012568396  TIP3      2603            0.0000000000
     21610      2704  TIP3      OH2            22.6650684005      -26.9533899298      -29.1004206071  TIP3      2604            0.0000000000
     21611      2704  TIP3      H1             21.9570617319      -26.7836870401      -29.7715401638  TIP3      2604            0.0000000000
     21612      2704  TIP3      H2             23.4702636874      -26.8917575394      -29.6440710217  TIP3      2604            0.0000000000
     21613      2705  TIP3      OH2            16.4146189349      -28.2967320823      -32.1363330071  TIP3      2605            0.0000000000
     21614      2705  TIP3      H1             16.5393582886      -29.1425528217      -31.6670726878  TIP3      2605            0.0000000000
     21615      2705  TIP3      H2             15.6162792132      -27.9606936246      -31.6645461082  TIP3      2605            0.0000000000
     21616      2706  TIP3      OH2            21.2931419114      -13.3153911339      -33.9088205115  TIP3      2606            0.0000000000
     21617      2706  TIP3      H1             21.3189226495      -14.1279430157      -34.4415124847  TIP3      2606            0.0000000000
     21618      2706  TIP3      H2             22.0902208363      -12.8667118256      -34.2788680475  TIP3      2606            0.0000000000
     21619      2707  TIP3      OH2            22.4291824720      -15.4623784361      -35.5402756536  TIP3      2607            0.0000000000
     21620      2707  TIP3      H1             22.3280003766      -16.1399882769      -36.2360103481  TIP3      2607            0.0000000000
     21621      2707  TIP3      H2             22.2715471901      -16.0005964092      -34.7485068000  TIP3      2607            0.0000000000
     21622      2708  TIP3      OH2            24.1812342493      -16.8702793059      -26.9858589581  TIP3      2608            0.0000000000
     21623      2708  TIP3      H1             24.4040766914      -17.5248742655      -27.6866542559  TIP3      2608            0.0000000000
     21624      2708  TIP3      H2             24.2553680998      -16.0379999528      -27.5070308443  TIP3      2608            0.0000000000
     21625      2709  TIP3      OH2            18.5630605019      -20.0077017821      -37.3898684571  TIP3      2609            0.0000000000
     21626      2709  TIP3      H1             18.0419723222      -19.2446047545      -37.7064091331  TIP3      2609            0.0000000000
     21627      2709  TIP3      H2             19.2049899475      -20.1427448178      -38.1147784250  TIP3      2609            0.0000000000
     21628      2710  TIP3      OH2            18.7023500711      -21.1976100746      -39.9907580690  TIP3      2610            0.0000000000
     21629      2710  TIP3      H1             19.6299730536      -21.0605926395      -39.7165019620  TIP3      2610            0.0000000000
     21630      2710  TIP3      H2             18.7718186078      -21.9307578268      -40.6160339698  TIP3      2610            0.0000000000
     21631      2711  TIP3      OH2            26.0246249657      -20.4208485943      -29.0878824013  TIP3      2611            0.0000000000
     21632      2711  TIP3      H1             25.4248475093      -19.6511946386      -29.1503678490  TIP3      2611            0.0000000000
     21633      2711  TIP3      H2             26.6264668055      -20.2521935122      -29.8303226463  TIP3      2611            0.0000000000
     21634      2712  TIP3      OH2            22.6195332612      -19.8763751804      -36.1473273075  TIP3      2612            0.0000000000
     21635      2712  TIP3      H1             21.7999654568      -19.6500782154      -35.6396800084  TIP3      2612            0.0000000000
     21636      2712  TIP3      H2             23.1469508466      -20.3123697165      -35.4576108314  TIP3      2612            0.0000000000
     21637      2713  TIP3      OH2            21.8612132880      -21.8744182512      -27.0098918870  TIP3      2613            0.0000000000
     21638      2713  TIP3      H1             21.8074719994      -20.9239993367      -26.8153719833  TIP3      2613            0.0000000000
     21639      2713  TIP3      H2             21.1586595036      -21.8929043369      -27.6723912889  TIP3      2613            0.0000000000
     21640      2714  TIP3      OH2            13.7104132385      -19.2786349174      -34.5340436594  TIP3      2614            0.0000000000
     21641      2714  TIP3      H1             13.4750262520      -19.7339623700      -35.3691932850  TIP3      2614            0.0000000000
     21642      2714  TIP3      H2             14.1478426109      -19.9846202687      -34.0178310484  TIP3      2614            0.0000000000
     21643      2715  TIP3      OH2            14.9709139375      -16.0604498437      -31.7047073063  TIP3      2615            0.0000000000
     21644      2715  TIP3      H1             15.0958425361      -16.1697615088      -32.6576573824  TIP3      2615            0.0000000000
     21645      2715  TIP3      H2             15.7795725891      -16.4606226123      -31.3217861747  TIP3      2615            0.0000000000
     21646      2716  TIP3      OH2            13.6721785145      -20.4846498704      -30.5261511789  TIP3      2616            0.0000000000
     21647      2716  TIP3      H1             13.9478413573      -20.4994411813      -31.4727191387  TIP3      2616            0.0000000000
     21648      2716  TIP3      H2             14.1246514653      -19.6648645206      -30.2079960364  TIP3      2616            0.0000000000
     21649      2717  TIP3      OH2            20.5850601322      -14.8253778401      -29.9825281436  TIP3      2617            0.0000000000
     21650      2717  TIP3      H1             20.3329364281      -14.2600258808      -29.2362772261  TIP3      2617            0.0000000000
     21651      2717  TIP3      H2             20.3569474526      -15.7175720624      -29.6535689359  TIP3      2617            0.0000000000
     21652      2718  TIP3      OH2            14.8613288228      -16.1083005833      -25.9210279090  TIP3      2618            0.0000000000
     21653      2718  TIP3      H1             14.2779207426      -15.3907781203      -25.5942380211  TIP3      2618            0.0000000000
     21654      2718  TIP3      H2             14.4862881228      -16.2207154440      -26.8259087700  TIP3      2618            0.0000000000
     21655      2719  TIP3      OH2            21.0980677487      -20.4702489865      -38.3096826051  TIP3      2619            0.0000000000
     21656      2719  TIP3      H1             21.6160390912      -20.1784240548      -37.5197175247  TIP3      2619            0.0000000000
     21657      2719  TIP3      H2             21.5241448833      -19.9458719162      -39.0203769259  TIP3      2619            0.0000000000
     21658      2720  TIP3      OH2            11.9198045428      -20.3226987328      -26.5822552984  TIP3      2620            0.0000000000
     21659      2720  TIP3      H1             12.0379963053      -19.6490727033      -25.8922327221  TIP3      2620            0.0000000000
     21660      2720  TIP3      H2             10.9426611124      -20.3655408633      -26.5612635800  TIP3      2620            0.0000000000
     21661      2721  TIP3      OH2            18.8019724139      -13.4457350050      -35.5316066861  TIP3      2621            0.0000000000
     21662      2721  TIP3      H1             18.9084940573      -12.9283030702      -34.7237668074  TIP3      2621            0.0000000000
     21663      2721  TIP3      H2             18.1854029857      -12.8995284120      -36.0387626952  TIP3      2621            0.0000000000
     21664      2722  TIP3      OH2            13.4562494130      -13.9629262269      -25.2711716656  TIP3      2622            0.0000000000
     21665      2722  TIP3      H1             13.3671432364      -13.6510096858      -26.2032437962  TIP3      2622            0.0000000000
     21666      2722  TIP3      H2             12.5292297907      -14.2390026161      -25.0877471153  TIP3      2622            0.0000000000
     21667      2723  TIP3      OH2            25.0685023831      -28.9065878894      -38.6632347469  TIP3      2623            0.0000000000
     21668      2723  TIP3      H1             24.1633829750      -28.6004723014      -38.4565897266  TIP3      2623            0.0000000000
     21669      2723  TIP3      H2             25.4180897943      -28.1498611571      -39.1820008519  TIP3      2623            0.0000000000
     21670      2724  TIP3      OH2            12.6183134539      -20.3704534986      -36.8494824061  TIP3      2624            0.0000000000
     21671      2724  TIP3      H1             12.2339292911      -19.5372986731      -37.2067076988  TIP3      2624            0.0000000000
     21672      2724  TIP3      H2             11.9473494053      -21.0234880842      -37.0711970354  TIP3      2624            0.0000000000
     21673      2725  TIP3      OH2            25.8754389732      -14.4530352895      -40.3475994844  TIP3      2625            0.0000000000
     21674      2725  TIP3      H1             26.0670575612      -13.4920719219      -40.3726847777  TIP3      2625            0.0000000000
     21675      2725  TIP3      H2             26.7359198097      -14.8474215499      -40.0850832603  TIP3      2625            0.0000000000
     21676      2726  TIP3      OH2             9.0969632531      -17.7345543192      -27.8292298575  TIP3      2626            0.0000000000
     21677      2726  TIP3      H1              8.7599540726      -17.8507976529      -28.7247076299  TIP3      2626            0.0000000000
     21678      2726  TIP3      H2              9.4764641965      -18.6198188891      -27.7014711150  TIP3      2626            0.0000000000
     21679      2727  TIP3      OH2             8.8768719792      -15.0370820548      -31.3819767486  TIP3      2627            0.0000000000
     21680      2727  TIP3      H1              9.8301982930      -15.1477130847      -31.2524501641  TIP3      2627            0.0000000000
     21681      2727  TIP3      H2              8.6936806132      -14.2904173586      -30.7958795805  TIP3      2627            0.0000000000
     21682      2728  TIP3      OH2            27.0196653066      -14.0721481478      -25.7017120370  TIP3      2628            0.0000000000
     21683      2728  TIP3      H1             27.1946851860      -14.9509364117      -25.3280900093  TIP3      2628            0.0000000000
     21684      2728  TIP3      H2             26.2470101483      -13.8147440171      -25.1489562261  TIP3      2628            0.0000000000
     21685      2729  TIP3      OH2            17.2650686424      -14.8828740660      -26.3189579421  TIP3      2629            0.0000000000
     21686      2729  TIP3      H1             17.6472680211      -14.3408636858      -25.6095114055  TIP3      2629            0.0000000000
     21687      2729  TIP3      H2             16.3344097881      -15.0652876628      -26.0526750362  TIP3      2629            0.0000000000
     21688      2730  TIP3      OH2            17.7726326174      -11.0000699279      -36.9822362219  TIP3      2630            0.0000000000
     21689      2730  TIP3      H1             17.8070758158      -10.8601000840      -37.9463068282  TIP3      2630            0.0000000000
     21690      2730  TIP3      H2             18.0047039234      -10.1013995313      -36.6638612015  TIP3      2630            0.0000000000
     21691      2731  TIP3      OH2            11.8841431496      -12.4813859628      -34.8869024442  TIP3      2631            0.0000000000
     21692      2731  TIP3      H1             12.0516912175      -12.8651858499      -33.9972635278  TIP3      2631            0.0000000000
     21693      2731  TIP3      H2             10.9577074389      -12.7224268233      -35.0566071212  TIP3      2631            0.0000000000
     21694      2732  TIP3      OH2            21.2308925445      -11.8124816466      -39.8044790484  TIP3      2632            0.0000000000
     21695      2732  TIP3      H1             21.7293327783      -12.5518922188      -40.1926157290  TIP3      2632            0.0000000000
     21696      2732  TIP3      H2             21.3133608646      -11.9938950780      -38.8479861639  TIP3      2632            0.0000000000
     21697      2733  TIP3      OH2            20.8499650815      -11.8823422348      -37.0616739563  TIP3      2633            0.0000000000
     21698      2733  TIP3      H1             19.9526243287      -11.6049294435      -36.8366330734  TIP3      2633            0.0000000000
     21699      2733  TIP3      H2             20.8713223098      -12.7657215671      -36.6511764053  TIP3      2633            0.0000000000
     21700      2734  TIP3      OH2            23.6481096030      -22.5435878743      -24.9647651117  TIP3      2634            0.0000000000
     21701      2734  TIP3      H1             22.8851994164      -22.2769462852      -25.5220854851  TIP3      2634            0.0000000000
     21702      2734  TIP3      H2             23.8956831829      -23.3709044942      -25.4134405194  TIP3      2634            0.0000000000
     21703      2735  TIP3      OH2            11.2830811453      -16.3188597028      -26.9489505963  TIP3      2635            0.0000000000
     21704      2735  TIP3      H1             11.4445570459      -16.7426635392      -26.0729094786  TIP3      2635            0.0000000000
     21705      2735  TIP3      H2             10.3927945954      -16.6566020426      -27.1733046891  TIP3      2635            0.0000000000
     21706      2736  TIP3      OH2            14.0417613658      -27.4130919700      -31.1699678469  TIP3      2636            0.0000000000
     21707      2736  TIP3      H1             13.3310616668      -27.0545237215      -31.7323823109  TIP3      2636            0.0000000000
     21708      2736  TIP3      H2             13.7720851646      -27.0582732401      -30.2984230747  TIP3      2636            0.0000000000
     21709      2737  TIP3      OH2            18.3808262359      -28.2553145253      -27.1170173677  TIP3      2637            0.0000000000
     21710      2737  TIP3      H1             18.6055118521      -29.1992599290      -27.2548440294  TIP3      2637            0.0000000000
     21711      2737  TIP3      H2             17.6534324098      -28.1348217951      -27.7495381129  TIP3      2637            0.0000000000
     21712      2738  TIP3      OH2            21.7332623237      -24.6606481328      -27.2646891488  TIP3      2638            0.0000000000
     21713      2738  TIP3      H1             21.0352491051      -24.7327665835      -26.5884889604  TIP3      2638            0.0000000000
     21714      2738  TIP3      H2             21.7196611193      -23.7133911520      -27.4653240609  TIP3      2638            0.0000000000
     21715      2739  TIP3      OH2            22.5803808853      -19.1108461388      -40.3088683989  TIP3      2639            0.0000000000
     21716      2739  TIP3      H1             22.4375869910      -19.0524409059      -41.2733226574  TIP3      2639            0.0000000000
     21717      2739  TIP3      H2             23.3752750018      -18.5550393436      -40.1798226070  TIP3      2639            0.0000000000
     21718      2740  TIP3      OH2            18.1377726801      -25.4224796748      -39.9423600875  TIP3      2640            0.0000000000
     21719      2740  TIP3      H1             17.5581301451      -25.8566755267      -39.2934674409  TIP3      2640            0.0000000000
     21720      2740  TIP3      H2             18.1962721437      -26.0732226634      -40.6515219229  TIP3      2640            0.0000000000
     21721      2741  TIP3      OH2            13.9348651234      -22.9459723954      -29.6358037102  TIP3      2641            0.0000000000
     21722      2741  TIP3      H1             13.1258189796      -22.9592935015      -29.0869009525  TIP3      2641            0.0000000000
     21723      2741  TIP3      H2             14.0126417211      -21.9772706108      -29.8049894036  TIP3      2641            0.0000000000
     21724      2742  TIP3      OH2            13.9966847419      -22.9196692524      -34.8145692149  TIP3      2642            0.0000000000
     21725      2742  TIP3      H1             13.0646077884      -22.8767512680      -35.1173699301  TIP3      2642            0.0000000000
     21726      2742  TIP3      H2             14.4421615679      -23.1328927399      -35.6596706707  TIP3      2642            0.0000000000
     21727      2743  TIP3      OH2            19.5915087666      -22.1248976248      -35.8755139206  TIP3      2643            0.0000000000
     21728      2743  TIP3      H1             19.1677690732      -21.4035563604      -36.3979774852  TIP3      2643            0.0000000000
     21729      2743  TIP3      H2             20.3093039673      -22.3741376881      -36.4654968515  TIP3      2643            0.0000000000
     21730      2744  TIP3      OH2            17.7337140286      -21.9060576709      -24.1773685275  TIP3      2644            0.0000000000
     21731      2744  TIP3      H1             17.5880242446      -22.8386350108      -23.9092761108  TIP3      2644            0.0000000000
     21732      2744  TIP3      H2             18.6937121872      -21.8907501456      -24.3142568092  TIP3      2644            0.0000000000
     21733      2745  TIP3      OH2            20.2525321405      -22.9220625742      -32.8820583436  TIP3      2645            0.0000000000
     21734      2745  TIP3      H1             19.9787992874      -22.1968546892      -33.4749834843  TIP3      2645            0.0000000000
     21735      2745  TIP3      H2             20.3216700828      -23.6345251600      -33.5399294931  TIP3      2645            0.0000000000
     21736      2746  TIP3      OH2            11.2263431802      -22.9621576618      -28.4143127405  TIP3      2646            0.0000000000
     21737      2746  TIP3      H1             11.6870718134      -22.6226201938      -27.6239740696  TIP3      2646            0.0000000000
     21738      2746  TIP3      H2             10.9862356960      -23.8629631624      -28.0979151129  TIP3      2646            0.0000000000
     21739      2747  TIP3      OH2            14.3758294953      -25.1365364184      -41.4100323485  TIP3      2647            0.0000000000
     21740      2747  TIP3      H1             14.0228541677      -25.4675527777      -40.5552292842  TIP3      2647            0.0000000000
     21741      2747  TIP3      H2             13.9882507496      -24.2444541628      -41.4379555523  TIP3      2647            0.0000000000
     21742      2748  TIP3      OH2             8.1413468192      -25.3557696337      -34.1079456881  TIP3      2648            0.0000000000
     21743      2748  TIP3      H1              8.8618033956      -25.3663834523      -33.4473663196  TIP3      2648            0.0000000000
     21744      2748  TIP3      H2              8.5943501655      -25.3733204197      -34.9616347448  TIP3      2648            0.0000000000
     21745      2749  TIP3      OH2             9.1535317381      -24.8358745222      -38.8658035358  TIP3      2649            0.0000000000
     21746      2749  TIP3      H1              9.7588363269      -24.2210033688      -39.3429826457  TIP3      2649            0.0000000000
     21747      2749  TIP3      H2              8.5444073644      -24.1660831101      -38.5001207760  TIP3      2649            0.0000000000
     21748      2750  TIP3      OH2            19.3930702697      -21.1436105730      -28.8893312177  TIP3      2650            0.0000000000
     21749      2750  TIP3      H1             19.9716046356      -21.8349828773      -29.2963429806  TIP3      2650            0.0000000000
     21750      2750  TIP3      H2             18.8833906194      -21.6876412734      -28.2547443990  TIP3      2650            0.0000000000
     21751      2751  TIP3      OH2            16.6293543232      -25.5010528385      -33.7024172635  TIP3      2651            0.0000000000
     21752      2751  TIP3      H1             15.6680910232      -25.6396111614      -33.7259632464  TIP3      2651            0.0000000000
     21753      2751  TIP3      H2             16.8083803473      -25.6627778675      -32.7682475668  TIP3      2651            0.0000000000
     21754      2752  TIP3      OH2            11.3316504883      -23.6725533186      -35.0014652311  TIP3      2652            0.0000000000
     21755      2752  TIP3      H1             10.5453811295      -23.3467995667      -35.5055501511  TIP3      2652            0.0000000000
     21756      2752  TIP3      H2             11.4272767043      -24.5885864825      -35.3157935013  TIP3      2652            0.0000000000
     21757      2753  TIP3      OH2            14.8128891927      -23.5305485729      -37.3461251130  TIP3      2653            0.0000000000
     21758      2753  TIP3      H1             15.7636218113      -23.3183425089      -37.4003176825  TIP3      2653            0.0000000000
     21759      2753  TIP3      H2             14.3840493462      -22.8717242968      -37.9109934334  TIP3      2653            0.0000000000
     21760      2754  TIP3      OH2            20.5460251237      -26.1333863255      -30.5300180702  TIP3      2654            0.0000000000
     21761      2754  TIP3      H1             19.8045279401      -26.1550331490      -29.8977135974  TIP3      2654            0.0000000000
     21762      2754  TIP3      H2             20.1341957756      -26.5387074442      -31.3279910834  TIP3      2654            0.0000000000
     21763      2755  TIP3      OH2            13.3090340383      -21.8700697091      -40.1811642672  TIP3      2655            0.0000000000
     21764      2755  TIP3      H1             12.6410184849      -21.8454966790      -40.8861921519  TIP3      2655            0.0000000000
     21765      2755  TIP3      H2             14.1298491248      -21.7112794291      -40.6773275526  TIP3      2655            0.0000000000
     21766      2756  TIP3      OH2            24.0407721313      -10.3809424277      -24.2313206356  TIP3      2656            0.0000000000
     21767      2756  TIP3      H1             24.4223603944      -10.1259153392      -25.0902281158  TIP3      2656            0.0000000000
     21768      2756  TIP3      H2             24.6143496139       -9.8869732601      -23.6132880845  TIP3      2656            0.0000000000
     21769      2757  TIP3      OH2            11.6818519688      -17.6758096062      -24.6226773753  TIP3      2657            0.0000000000
     21770      2757  TIP3      H1             12.2840459311      -17.6878154072      -23.8531249806  TIP3      2657            0.0000000000
     21771      2757  TIP3      H2             10.8579719032      -17.9365139268      -24.1537473509  TIP3      2657            0.0000000000
     21772      2758  TIP3      OH2            16.9961464793      -22.2462889283      -32.0401059348  TIP3      2658            0.0000000000
     21773      2758  TIP3      H1             17.8117505736      -22.6316743949      -32.4056297076  TIP3      2658            0.0000000000
     21774      2758  TIP3      H2             16.6730941150      -23.0025252047      -31.5224495445  TIP3      2658            0.0000000000
     21775      2759  TIP3      OH2            12.3217578202      -26.3716335958      -35.4963126348  TIP3      2659            0.0000000000
     21776      2759  TIP3      H1             11.8841398354      -27.0763226843      -34.9699734407  TIP3      2659            0.0000000000
     21777      2759  TIP3      H2             12.7685532000      -26.8833350264      -36.1840055438  TIP3      2659            0.0000000000
     21778      2760  TIP3      OH2            16.4885107122      -24.1131113672      -29.4926733533  TIP3      2660            0.0000000000
     21779      2760  TIP3      H1             15.6902943478      -23.5514572643      -29.4691669355  TIP3      2660            0.0000000000
     21780      2760  TIP3      H2             17.0761585838      -23.6520280785      -28.8733294421  TIP3      2660            0.0000000000
     21781      2761  TIP3      OH2            16.8714837939      -17.8907213182      -37.4715538872  TIP3      2661            0.0000000000
     21782      2761  TIP3      H1             16.1149075602      -18.4464509562      -37.7693134008  TIP3      2661            0.0000000000
     21783      2761  TIP3      H2             16.5236182506      -17.5859184540      -36.5975554793  TIP3      2661            0.0000000000
     21784      2762  TIP3      OH2            24.3832940912      -18.3436509870      -29.1878841022  TIP3      2662            0.0000000000
     21785      2762  TIP3      H1             24.7887948366      -17.6893434582      -29.7995088331  TIP3      2662            0.0000000000
     21786      2762  TIP3      H2             23.5062655180      -18.4785382617      -29.5822170013  TIP3      2662            0.0000000000
     21787      2763  TIP3      OH2            20.6983515871      -24.7963769636      -40.3066065344  TIP3      2663            0.0000000000
     21788      2763  TIP3      H1             19.7379075318      -24.8745434669      -40.0748819642  TIP3      2663            0.0000000000
     21789      2763  TIP3      H2             20.9908752749      -24.0768266578      -39.6929980500  TIP3      2663            0.0000000000
     21790      2764  TIP3      OH2            17.8598212243      -17.6195795973      -26.7742663838  TIP3      2664            0.0000000000
     21791      2764  TIP3      H1             17.5745655783      -17.8967435144      -25.8898440931  TIP3      2664            0.0000000000
     21792      2764  TIP3      H2             17.5975195511      -16.6738289210      -26.7532293803  TIP3      2664            0.0000000000
     21793      2765  TIP3      OH2            21.5915591969      -23.1068638117      -38.3131221894  TIP3      2665            0.0000000000
     21794      2765  TIP3      H1             22.2663330731      -23.2461647923      -37.6139869207  TIP3      2665            0.0000000000
     21795      2765  TIP3      H2             21.5496860114      -22.1293076825      -38.3567299392  TIP3      2665            0.0000000000
     21796      2766  TIP3      OH2            12.0297595040      -18.4503083044      -32.3149871775  TIP3      2666            0.0000000000
     21797      2766  TIP3      H1             12.6538588523      -18.6067639414      -33.0518044262  TIP3      2666            0.0000000000
     21798      2766  TIP3      H2             12.2663164806      -19.1423161439      -31.6757025846  TIP3      2666            0.0000000000
     21799      2767  TIP3      OH2            19.0393053999      -16.5903389902      -38.2738341915  TIP3      2667            0.0000000000
     21800      2767  TIP3      H1             18.5584148291      -15.7369019554      -38.3557400646  TIP3      2667            0.0000000000
     21801      2767  TIP3      H2             18.2903244300      -17.1754625477      -38.0173086102  TIP3      2667            0.0000000000
     21802      2768  TIP3      OH2             9.2321102919      -20.5600471193      -26.8196582469  TIP3      2668            0.0000000000
     21803      2768  TIP3      H1              8.7389329539      -20.9804058343      -26.0812862222  TIP3      2668            0.0000000000
     21804      2768  TIP3      H2              8.6190824128      -20.7033837567      -27.5672601480  TIP3      2668            0.0000000000
     21805      2769  TIP3      OH2            15.3638029298      -20.4002070959      -24.9006565059  TIP3      2669            0.0000000000
     21806      2769  TIP3      H1             15.0533509928      -20.8082199773      -25.7230212322  TIP3      2669            0.0000000000
     21807      2769  TIP3      H2             16.1658695385      -20.9249905011      -24.7288091002  TIP3      2669            0.0000000000
     21808      2770  TIP3      OH2            21.0570222083      -15.3257954910      -26.2962741608  TIP3      2670            0.0000000000
     21809      2770  TIP3      H1             20.3037979060      -15.0390661836      -26.8347037134  TIP3      2670            0.0000000000
     21810      2770  TIP3      H2             20.8825628887      -14.7948680510      -25.4987733930  TIP3      2670            0.0000000000
     21811      2771  TIP3      OH2            25.5005153215      -23.0342336359      -38.0420019897  TIP3      2671            0.0000000000
     21812      2771  TIP3      H1             25.4194187113      -23.0418933958      -39.0361971807  TIP3      2671            0.0000000000
     21813      2771  TIP3      H2             26.1207703740      -22.2985015146      -37.9065646712  TIP3      2671            0.0000000000
     21814      2772  TIP3      OH2            26.7912606860      -17.0991475019      -25.4957146281  TIP3      2672            0.0000000000
     21815      2772  TIP3      H1             25.8653002222      -16.8823897713      -25.7210304475  TIP3      2672            0.0000000000
     21816      2772  TIP3      H2             27.2314538837      -17.0598225705      -26.3705355971  TIP3      2672            0.0000000000
     21817      2773  TIP3      OH2            24.6813404602      -14.4508926531      -37.6985025698  TIP3      2673            0.0000000000
     21818      2773  TIP3      H1             23.8511942939      -14.8782632399      -37.4441866778  TIP3      2673            0.0000000000
     21819      2773  TIP3      H2             24.8907297055      -14.8035835529      -38.5820504398  TIP3      2673            0.0000000000
     21820      2774  TIP3      OH2            21.8432121744      -19.4081709770      -30.8898936347  TIP3      2674            0.0000000000
     21821      2774  TIP3      H1             20.9001238931      -19.5667571828      -31.0541846468  TIP3      2674            0.0000000000
     21822      2774  TIP3      H2             22.2314928993      -20.1694201464      -31.3678236457  TIP3      2674            0.0000000000
     21823      2775  TIP3      OH2            14.1278400453      -15.1501299200      -34.3683608085  TIP3      2675            0.0000000000
     21824      2775  TIP3      H1             14.4352800023      -14.2407400915      -34.4987063759  TIP3      2675            0.0000000000
     21825      2775  TIP3      H2             13.3908883580      -15.2009928498      -34.9966344765  TIP3      2675            0.0000000000
     21826      2776  TIP3      OH2            10.8479754379      -20.0853933735      -40.3666255039  TIP3      2676            0.0000000000
     21827      2776  TIP3      H1             11.0560184644      -19.5576272789      -39.5692334406  TIP3      2676            0.0000000000
     21828      2776  TIP3      H2              9.8750336511      -20.1094247392      -40.3579215116  TIP3      2676            0.0000000000
     21829      2777  TIP3      OH2            15.5134054466      -17.2720720191      -35.2381859274  TIP3      2677            0.0000000000
     21830      2777  TIP3      H1             15.0108061691      -16.4644384654      -34.9994114354  TIP3      2677            0.0000000000
     21831      2777  TIP3      H2             15.0253176098      -17.9742800538      -34.7636522018  TIP3      2677            0.0000000000
     21832      2778  TIP3      OH2            16.2989590217      -13.1363176671      -28.3831289151  TIP3      2678            0.0000000000
     21833      2778  TIP3      H1             17.0086802792      -12.5431115249      -28.7129894768  TIP3      2678            0.0000000000
     21834      2778  TIP3      H2             16.7523974410      -13.5404236114      -27.6172997527  TIP3      2678            0.0000000000
     21835      2779  TIP3      OH2            14.3954397757      -12.5507766170      -35.8234033454  TIP3      2679            0.0000000000
     21836      2779  TIP3      H1             13.4204862252      -12.5973617721      -35.7110240692  TIP3      2679            0.0000000000
     21837      2779  TIP3      H2             14.6245623130      -11.9159694048      -35.1260006230  TIP3      2679            0.0000000000
     21838      2780  TIP3      OH2            19.4493433358      -17.2860734883      -29.1243857566  TIP3      2680            0.0000000000
     21839      2780  TIP3      H1             19.0255000747      -17.5285369135      -28.2663527353  TIP3      2680            0.0000000000
     21840      2780  TIP3      H2             19.8462358220      -18.1360398202      -29.3936858256  TIP3      2680            0.0000000000
     21841      2781  TIP3      OH2            22.1093913423      -16.0139044116      -39.7190518533  TIP3      2681            0.0000000000
     21842      2781  TIP3      H1             22.3126373149      -16.3994289356      -38.8389900358  TIP3      2681            0.0000000000
     21843      2781  TIP3      H2             21.2002050246      -16.3371290805      -39.8182628379  TIP3      2681            0.0000000000
     21844      2782  TIP3      OH2            22.8800866850      -12.7345218829      -26.7148448865  TIP3      2682            0.0000000000
     21845      2782  TIP3      H1             22.0375678871      -13.1662130389      -26.9246235016  TIP3      2682            0.0000000000
     21846      2782  TIP3      H2             22.9045182578      -12.0166225406      -27.3853624006  TIP3      2682            0.0000000000
     21847      2783  TIP3      OH2            26.4800353093      -11.7943328020      -39.9001896496  TIP3      2683            0.0000000000
     21848      2783  TIP3      H1             27.3337256148      -11.3134794119      -39.9148305897  TIP3      2683            0.0000000000
     21849      2783  TIP3      H2             25.9603186881      -11.1409841976      -39.3684443122  TIP3      2683            0.0000000000
     21850      2784  TIP3      OH2            10.7589439788      -25.2663490288      -27.0723736897  TIP3      2684            0.0000000000
     21851      2784  TIP3      H1              9.8075393307      -25.2649473865      -26.9024948091  TIP3      2684            0.0000000000
     21852      2784  TIP3      H2             11.0577970353      -25.9629631666      -26.4577350316  TIP3      2684            0.0000000000
     21853      2785  TIP3      OH2            22.8548433896      -17.4805470785      -37.5077046666  TIP3      2685            0.0000000000
     21854      2785  TIP3      H1             22.6857048749      -18.3747228728      -37.1363809055  TIP3      2685            0.0000000000
     21855      2785  TIP3      H2             23.8320407202      -17.5377426461      -37.5983897228  TIP3      2685            0.0000000000
     21856      2786  TIP3      OH2            10.2565988441      -13.8032864374      -28.9783273551  TIP3      2686            0.0000000000
     21857      2786  TIP3      H1             10.9690822442      -14.4270935921      -28.7772677642  TIP3      2686            0.0000000000
     21858      2786  TIP3      H2             10.1029853908      -13.4073640883      -28.1109831545  TIP3      2686            0.0000000000
     21859      2787  TIP3      OH2            14.7835760770      -15.5170167506      -39.1662853088  TIP3      2687            0.0000000000
     21860      2787  TIP3      H1             15.4724994921      -15.9586433134      -38.6402978788  TIP3      2687            0.0000000000
     21861      2787  TIP3      H2             14.8110283268      -14.5949545953      -38.8062809935  TIP3      2687            0.0000000000
     21862      2788  TIP3      OH2            11.3805645430      -18.3491052111      -38.2764287776  TIP3      2688            0.0000000000
     21863      2788  TIP3      H1             10.6564725579      -17.9349800814      -37.7593865942  TIP3      2688            0.0000000000
     21864      2788  TIP3      H2             11.6310200926      -17.6222891808      -38.8752262445  TIP3      2688            0.0000000000
     21865      2789  TIP3      OH2            19.4457216656      -25.8941170349      -27.9519668081  TIP3      2689            0.0000000000
     21866      2789  TIP3      H1             20.4247938594      -25.9186617480      -28.0357920500  TIP3      2689            0.0000000000
     21867      2789  TIP3      H2             19.2801722534      -26.6901624258      -27.4022041957  TIP3      2689            0.0000000000
     21868      2790  TIP3      OH2            20.7507014275      -26.4485380242      -37.9366985287  TIP3      2690            0.0000000000
     21869      2790  TIP3      H1             21.0067326376      -26.0122341463      -38.7747913214  TIP3      2690            0.0000000000
     21870      2790  TIP3      H2             20.9396208038      -25.7499769470      -37.2957937993  TIP3      2690            0.0000000000
     21871      2791  TIP3      OH2            17.7522782601      -14.1327951527      -38.6105333670  TIP3      2691            0.0000000000
     21872      2791  TIP3      H1             16.9419255697      -13.6645106338      -38.3626917861  TIP3      2691            0.0000000000
     21873      2791  TIP3      H2             17.8969607256      -13.8016575980      -39.5191041306  TIP3      2691            0.0000000000
     21874      2792  TIP3      OH2            17.4667097813      -24.1620864696      -36.3498454449  TIP3      2692            0.0000000000
     21875      2792  TIP3      H1             18.1160448165      -23.4776537232      -36.1005500332  TIP3      2692            0.0000000000
     21876      2792  TIP3      H2             17.1824722749      -24.5300165552      -35.4978287590  TIP3      2692            0.0000000000
     21877      2793  TIP3      OH2            18.4452678511      -23.1513494673      -27.2775992363  TIP3      2693            0.0000000000
     21878      2793  TIP3      H1             18.3352671614      -23.2657639832      -26.3311674498  TIP3      2693            0.0000000000
     21879      2793  TIP3      H2             18.7805002467      -24.0292729372      -27.5603526996  TIP3      2693            0.0000000000
     21880      2794  TIP3      OH2            18.2812018429      -27.0876036159      -35.4087903413  TIP3      2694            0.0000000000
     21881      2794  TIP3      H1             18.1357018349      -26.7319126568      -34.5044420443  TIP3      2694            0.0000000000
     21882      2794  TIP3      H2             19.1065818987      -26.6433462088      -35.6670043143  TIP3      2694            0.0000000000
     21883      2795  TIP3      OH2            15.0427986037      -12.9877957464      -38.3851498961  TIP3      2695            0.0000000000
     21884      2795  TIP3      H1             15.2961157084      -12.1328986241      -38.7817614514  TIP3      2695            0.0000000000
     21885      2795  TIP3      H2             14.7191888299      -12.6609384889      -37.5139334376  TIP3      2695            0.0000000000
     21886      2796  TIP3      OH2            13.5777765689      -25.6581089213      -38.8518110379  TIP3      2696            0.0000000000
     21887      2796  TIP3      H1             13.7191233120      -25.0050336803      -38.1424643656  TIP3      2696            0.0000000000
     21888      2796  TIP3      H2             14.2928131290      -26.2616363527      -38.6056712975  TIP3      2696            0.0000000000
     21889      2797  TIP3      OH2            24.0606241631      -25.2318200229      -26.1730902104  TIP3      2697            0.0000000000
     21890      2797  TIP3      H1             23.1398032508      -25.2881899717      -26.5111699038  TIP3      2697            0.0000000000
     21891      2797  TIP3      H2             24.5425734117      -25.3919960589      -27.0100157383  TIP3      2697            0.0000000000
     21892      2798  TIP3      OH2            22.6955901613      -21.7535179902      -32.4301265419  TIP3      2698            0.0000000000
     21893      2798  TIP3      H1             21.8620063404      -22.2597441341      -32.4080517310  TIP3      2698            0.0000000000
     21894      2798  TIP3      H2             23.3090789941      -22.3352717881      -31.9234543252  TIP3      2698            0.0000000000
     21895      2799  TIP3      OH2            12.1049078120      -15.6181236204      -39.9884697080  TIP3      2699            0.0000000000
     21896      2799  TIP3      H1             12.9476956953      -15.5581978443      -39.4889556266  TIP3      2699            0.0000000000
     21897      2799  TIP3      H2             12.3431948958      -16.2705036899      -40.6706091921  TIP3      2699            0.0000000000
     21898      2800  TIP3      OH2            10.2582874075      -22.7413942880      -40.0994637401  TIP3      2700            0.0000000000
     21899      2800  TIP3      H1             10.6625528300      -21.8629017405      -40.0317133033  TIP3      2700            0.0000000000
     21900      2800  TIP3      H2              9.9942968074      -22.7661835969      -41.0237559698  TIP3      2700            0.0000000000
     21901      2801  TIP3      OH2            23.7601272456      -12.2278821391      -30.6653976753  TIP3      2701            0.0000000000
     21902      2801  TIP3      H1             23.7175916176      -11.5817345076      -31.4058960985  TIP3      2701            0.0000000000
     21903      2801  TIP3      H2             24.7144723568      -12.1574964848      -30.4534760306  TIP3      2701            0.0000000000
     21904      2802  TIP3      OH2            10.9258514333      -28.2061432559      -31.7913070156  TIP3      2702            0.0000000000
     21905      2802  TIP3      H1             10.7160624943      -28.4026782137      -32.7312330811  TIP3      2702            0.0000000000
     21906      2802  TIP3      H2             10.9735520747      -29.1193926706      -31.4486815868  TIP3      2702            0.0000000000
     21907      2803  TIP3      OH2             9.5746470914      -14.4932188371      -36.2687783246  TIP3      2703            0.0000000000
     21908      2803  TIP3      H1              9.0465814719      -13.8812239413      -35.7425386987  TIP3      2703            0.0000000000
     21909      2803  TIP3      H2              9.8171614941      -13.9022757655      -37.0233545012  TIP3      2703            0.0000000000
     21910      2804  TIP3      OH2             9.1442417000      -11.5747804647      -24.4764877251  TIP3      2704            0.0000000000
     21911      2804  TIP3      H1              9.9498793494      -11.6121475326      -23.9461098565  TIP3      2704            0.0000000000
     21912      2804  TIP3      H2              8.9176591882      -12.5270284909      -24.5456475244  TIP3      2704            0.0000000000
     21913      2805  TIP3      OH2            14.2570535286      -12.4716332668      -23.2297491735  TIP3      2705            0.0000000000
     21914      2805  TIP3      H1             13.7048404385      -12.9945836223      -22.6375232822  TIP3      2705            0.0000000000
     21915      2805  TIP3      H2             14.0050579891      -12.8542237874      -24.0918058419  TIP3      2705            0.0000000000
     21916      2806  TIP3      OH2            17.8861018894      -13.1662505081      -41.1379119285  TIP3      2706            0.0000000000
     21917      2806  TIP3      H1             17.5527356083      -14.0298993336      -41.4093102407  TIP3      2706            0.0000000000
     21918      2806  TIP3      H2             18.3079771990      -12.8647920096      -41.9665323780  TIP3      2706            0.0000000000
     21919      2807  TIP3      OH2            20.1641553507      -13.9927404916      -24.0840652716  TIP3      2707            0.0000000000
     21920      2807  TIP3      H1             19.7356565792      -14.8391671908      -23.8020575080  TIP3      2707            0.0000000000
     21921      2807  TIP3      H2             20.9342267184      -13.9877685985      -23.4794058634  TIP3      2707            0.0000000000
     21922      2808  TIP3      OH2            23.1116719680      -13.9449102267      -41.3022191094  TIP3      2708            0.0000000000
     21923      2808  TIP3      H1             22.8363625676      -14.5748079723      -40.5990664383  TIP3      2708            0.0000000000
     21924      2808  TIP3      H2             24.0769128090      -13.9350646536      -41.1581008148  TIP3      2708            0.0000000000
     21925      2809  TIP3      OH2             9.2229143603      -17.6235894174      -23.2615206521  TIP3      2709            0.0000000000
     21926      2809  TIP3      H1              8.9183302681      -18.5281133200      -23.1148728692  TIP3      2709            0.0000000000
     21927      2809  TIP3      H2              8.4177277501      -17.1730436187      -23.5378365733  TIP3      2709            0.0000000000
     21928      2810  TIP3      OH2            13.8617128178      -17.5192611426      -41.1576316492  TIP3      2710            0.0000000000
     21929      2810  TIP3      H1             14.6908176709      -17.5876354296      -40.6496396524  TIP3      2710            0.0000000000
     21930      2810  TIP3      H2             13.9125219801      -18.3572810446      -41.6651602236  TIP3      2710            0.0000000000
     21931      2811  TIP3      OH2            16.2333714479      -17.8078334110      -24.4911753085  TIP3      2711            0.0000000000
     21932      2811  TIP3      H1             15.7938242099      -17.1021506691      -25.0220479847  TIP3      2711            0.0000000000
     21933      2811  TIP3      H2             15.8328552553      -18.6159859851      -24.8879199060  TIP3      2711            0.0000000000
     21934      2812  TIP3      OH2            21.8046418081      -18.1718957517      -26.7205867494  TIP3      2712            0.0000000000
     21935      2812  TIP3      H1             22.7032520386      -17.7619357328      -26.7226566581  TIP3      2712            0.0000000000
     21936      2812  TIP3      H2             21.3070749829      -17.3558154938      -26.5070123466  TIP3      2712            0.0000000000
     21937      2813  TIP3      OH2            10.2245108427      -20.2527750876      -23.6938875337  TIP3      2713            0.0000000000
     21938      2813  TIP3      H1             10.0747216668      -21.1832699376      -23.8853798986  TIP3      2713            0.0000000000
     21939      2813  TIP3      H2             10.2810568065      -20.2128107780      -22.7148633592  TIP3      2713            0.0000000000
     21940      2814  TIP3      OH2            15.0007814026      -19.4732780001      -38.6390901513  TIP3      2714            0.0000000000
     21941      2814  TIP3      H1             14.2339601499      -19.8995750956      -38.2132030055  TIP3      2714            0.0000000000
     21942      2814  TIP3      H2             15.3344700351      -20.1838391541      -39.2276448381  TIP3      2714            0.0000000000
     21943      2815  TIP3      OH2            13.8298011169      -22.0682841042      -26.9083923073  TIP3      2715            0.0000000000
     21944      2815  TIP3      H1             13.2407673906      -21.3010226067      -26.7227988900  TIP3      2715            0.0000000000
     21945      2815  TIP3      H2             14.5438208966      -21.6391426810      -27.4035736770  TIP3      2715            0.0000000000
     21946      2816  TIP3      OH2            16.0108891612      -21.1504222285      -40.6989566520  TIP3      2716            0.0000000000
     21947      2816  TIP3      H1             16.1977752466      -21.4786900090      -41.5860466845  TIP3      2716            0.0000000000
     21948      2816  TIP3      H2             16.9201691615      -21.1903890712      -40.3090779689  TIP3      2716            0.0000000000
     21949      2817  TIP3      OH2            19.6517292118      -18.8459410591      -23.3553986945  TIP3      2717            0.0000000000
     21950      2817  TIP3      H1             20.5008045057      -18.7455911033      -23.8096213761  TIP3      2717            0.0000000000
     21951      2817  TIP3      H2             19.5022255137      -19.7912830598      -23.4411329502  TIP3      2717            0.0000000000
     21952      2818  TIP3      OH2            25.2699758404      -17.8743635217      -41.1905439827  TIP3      2718            0.0000000000
     21953      2818  TIP3      H1             24.8164156823      -17.8798218374      -42.0427635887  TIP3      2718            0.0000000000
     21954      2818  TIP3      H2             25.8424004543      -17.0834584129      -41.2483621412  TIP3      2718            0.0000000000
     21955      2819  TIP3      OH2            14.0585243207      -24.5373555285      -25.5548863323  TIP3      2719            0.0000000000
     21956      2819  TIP3      H1             14.5943408225      -24.9236658672      -26.2690180565  TIP3      2719            0.0000000000
     21957      2819  TIP3      H2             13.6958937773      -23.7463638157      -25.9987799753  TIP3      2719            0.0000000000
     21958      2820  TIP3      OH2            15.1819142186      -25.8636324771      -27.8933111781  TIP3      2720            0.0000000000
     21959      2820  TIP3      H1             15.6622709822      -25.4287787291      -28.6404727416  TIP3      2720            0.0000000000
     21960      2820  TIP3      H2             14.2859116555      -25.8950430927      -28.2750417993  TIP3      2720            0.0000000000
     21961      2821  TIP3      OH2            16.2043974192      -20.0358020025      -27.7866543891  TIP3      2721            0.0000000000
     21962      2821  TIP3      H1             17.0565435073      -19.7529280888      -28.1423382736  TIP3      2721            0.0000000000
     21963      2821  TIP3      H2             15.6119155354      -19.3916802888      -28.2332642234  TIP3      2721            0.0000000000
     21964      2822  TIP3      OH2            22.5247847743      -19.6390930602      -24.6359673834  TIP3      2722            0.0000000000
     21965      2822  TIP3      H1             22.1627309218      -19.2627262974      -25.4641398603  TIP3      2722            0.0000000000
     21966      2822  TIP3      H2             23.4604009662      -19.7626963687      -24.8988956289  TIP3      2722            0.0000000000
     21967      2823  TIP3      OH2            15.5807152522      -28.4817201812      -28.1646316909  TIP3      2723            0.0000000000
     21968      2823  TIP3      H1             15.6390704780      -27.5070594948      -28.0067118659  TIP3      2723            0.0000000000
     21969      2823  TIP3      H2             14.6240115156      -28.5622220415      -28.0289615713  TIP3      2723            0.0000000000
     21970      2824  TIP3      OH2            17.3374231358      -24.6238090886      -23.9148047877  TIP3      2724            0.0000000000
     21971      2824  TIP3      H1             16.9860327080      -25.1156111963      -23.1518717571  TIP3      2724            0.0000000000
     21972      2824  TIP3      H2             16.5857546423      -24.6612342214      -24.5314763251  TIP3      2724            0.0000000000
     21973      2825  TIP3      OH2            20.0685800276      -24.6737467345      -24.7197080720  TIP3      2725            0.0000000000
     21974      2825  TIP3      H1             19.1559504803      -24.6780889127      -24.3844336740  TIP3      2725            0.0000000000
     21975      2825  TIP3      H2             20.4683999075      -25.3883683833      -24.1677927639  TIP3      2725            0.0000000000
     21976      2826  TIP3      OH2            20.9178135971      -26.6704303895      -23.0389800529  TIP3      2726            0.0000000000
     21977      2826  TIP3      H1             21.3660827095      -27.4829701926      -23.3594308997  TIP3      2726            0.0000000000
     21978      2826  TIP3      H2             20.1378958489      -27.1292926676      -22.6641336742  TIP3      2726            0.0000000000
     21979      2827  TIP3      OH2            15.1848012248      -28.5678062378      -25.3903574117  TIP3      2727            0.0000000000
     21980      2827  TIP3      H1             15.4665562415      -29.3172166784      -24.8411443482  TIP3      2727            0.0000000000
     21981      2827  TIP3      H2             15.7351816518      -28.6832899519      -26.1765849092  TIP3      2727            0.0000000000
     21982      2828  TIP3      OH2            16.2704293141      -27.6162333844      -23.0715630082  TIP3      2728            0.0000000000
     21983      2828  TIP3      H1             16.2110844317      -27.2541308411      -23.9667248455  TIP3      2728            0.0000000000
     21984      2828  TIP3      H2             15.7628379155      -27.0165606519      -22.5097271987  TIP3      2728            0.0000000000
     21985      2829  TIP3      OH2            15.7478517525      -10.7333246203      -39.9491246047  TIP3      2729            0.0000000000
     21986      2829  TIP3      H1             16.7144272177      -10.6767135293      -39.8313905373  TIP3      2729            0.0000000000
     21987      2829  TIP3      H2             15.6803147829      -10.5436588521      -40.9155756651  TIP3      2729            0.0000000000
     21988      2830  TIP3      OH2             9.3040773709      -15.9476189988      -40.1983926168  TIP3      2730            0.0000000000
     21989      2830  TIP3      H1             10.1835664834      -15.5435920975      -40.0951184520  TIP3      2730            0.0000000000
     21990      2830  TIP3      H2              9.3822072296      -16.2467434132      -41.1300883186  TIP3      2730            0.0000000000
     21991      2831  TIP3      OH2             8.4247112834      -11.2882438537      -35.3714995104  TIP3      2731            0.0000000000
     21992      2831  TIP3      H1              7.5238289637      -11.6108055708      -35.6239809877  TIP3      2731            0.0000000000
     21993      2831  TIP3      H2              8.5639971383      -11.6764107789      -34.4853474043  TIP3      2731            0.0000000000
     21994      2832  TIP3      OH2             9.0618234230      -12.7292513012      -33.1136363296  TIP3      2732            0.0000000000
     21995      2832  TIP3      H1              8.5887513942      -13.5338815438      -32.8329615525  TIP3      2732            0.0000000000
     21996      2832  TIP3      H2              9.2176148783      -12.2830356654      -32.2558049335  TIP3      2732            0.0000000000
     21997      2833  TIP3      OH2            26.2994209634      -11.1795681427      -30.0858482841  TIP3      2733            0.0000000000
     21998      2833  TIP3      H1             26.5030220357      -10.7378361282      -29.2377137170  TIP3      2733            0.0000000000
     21999      2833  TIP3      H2             27.1671733064      -11.1234062441      -30.5190413454  TIP3      2733            0.0000000000
     22000      2834  TIP3      OH2            26.0616548385      -12.2134183690      -27.4175297231  TIP3      2734            0.0000000000
     22001      2834  TIP3      H1             25.6138684956      -12.7639026888      -28.0899300876  TIP3      2734            0.0000000000
     22002      2834  TIP3      H2             26.4268703449      -12.8974273254      -26.8073723831  TIP3      2734            0.0000000000
     22003      2835  TIP3      OH2            24.9638126717      -16.3317496639      -22.9392725220  TIP3      2735            0.0000000000
     22004      2835  TIP3      H1             24.2891711352      -16.1829891056      -22.2650310071  TIP3      2735            0.0000000000
     22005      2835  TIP3      H2             25.5807083749      -15.5794075746      -22.7871542979  TIP3      2735            0.0000000000
     22006      2836  TIP3      OH2            25.4978055269      -18.0731718997      -37.5774177138  TIP3      2736            0.0000000000
     22007      2836  TIP3      H1             26.3597708904      -17.5940904758      -37.4994497768  TIP3      2736            0.0000000000
     22008      2836  TIP3      H2             25.6222730254      -18.7295755006      -36.8641840119  TIP3      2736            0.0000000000
     22009      2837  TIP3      OH2            26.2205010443      -19.9222787802      -35.5829540163  TIP3      2737            0.0000000000
     22010      2837  TIP3      H1             25.6772075626      -20.5036397111      -35.0130003214  TIP3      2737            0.0000000000
     22011      2837  TIP3      H2             26.8713589646      -19.5746865981      -34.9386615978  TIP3      2737            0.0000000000
     22012      2838  TIP3      OH2            26.0414900702      -17.1174449630      -30.8401265482  TIP3      2738            0.0000000000
     22013      2838  TIP3      H1             26.6101470170      -17.8948626176      -31.0291064701  TIP3      2738            0.0000000000
     22014      2838  TIP3      H2             26.5989820863      -16.3823239496      -31.1548185364  TIP3      2738            0.0000000000
     22015      2839  TIP3      OH2            24.5488570824      -14.5397409922      -28.5363043054  TIP3      2739            0.0000000000
     22016      2839  TIP3      H1             23.7827250340      -14.0123970772      -28.2666970763  TIP3      2739            0.0000000000
     22017      2839  TIP3      H2             24.2713891182      -14.8965717349      -29.4061465285  TIP3      2739            0.0000000000
     22018      2840  TIP3      OH2            26.6231441796      -20.1101687728      -39.6193023845  TIP3      2740            0.0000000000
     22019      2840  TIP3      H1             25.7269504564      -20.3159780846      -39.9339915692  TIP3      2740            0.0000000000
     22020      2840  TIP3      H2             26.4517683691      -19.4382779567      -38.9382969573  TIP3      2740            0.0000000000
     22021      2841  TIP3      OH2            25.0520058389      -23.2299390650      -40.6100984476  TIP3      2741            0.0000000000
     22022      2841  TIP3      H1             25.1196277025      -22.7543150258      -41.4531560648  TIP3      2741            0.0000000000
     22023      2841  TIP3      H2             24.5569028273      -24.0381397154      -40.8676681813  TIP3      2741            0.0000000000
     22024      2842  TIP3      OH2            24.4937875767      -21.9366991838      -34.6110056356  TIP3      2742            0.0000000000
     22025      2842  TIP3      H1             24.0592558580      -22.5831894845      -35.2075619675  TIP3      2742            0.0000000000
     22026      2842  TIP3      H2             23.7992407609      -21.7827757364      -33.9339589156  TIP3      2742            0.0000000000
     22027      2843  TIP3      OH2             9.0473174747      -19.2036070277      -30.7731460035  TIP3      2743            0.0000000000
     22028      2843  TIP3      H1              9.0349470759      -19.5648558352      -31.6905351229  TIP3      2743            0.0000000000
     22029      2843  TIP3      H2              9.9580998505      -19.4489429697      -30.4744272776  TIP3      2743            0.0000000000
     22030      2844  TIP3      OH2            25.2599455376      -19.4894190206      -25.3930127379  TIP3      2744            0.0000000000
     22031      2844  TIP3      H1             25.8728736335      -20.2585291283      -25.3379292392  TIP3      2744            0.0000000000
     22032      2844  TIP3      H2             25.8749355427      -18.7631094489      -25.6266072669  TIP3      2744            0.0000000000
     22033      2845  TIP3      OH2            26.2710195626      -21.8962961304      -25.1018989503  TIP3      2745            0.0000000000
     22034      2845  TIP3      H1             25.2941726437      -21.9136400297      -24.9607936672  TIP3      2745            0.0000000000
     22035      2845  TIP3      H2             26.4913240302      -22.7735459931      -24.7162811201  TIP3      2745            0.0000000000
     22036      2846  TIP3      OH2            23.9310068278      -25.5027474371      -41.4751964329  TIP3      2746            0.0000000000
     22037      2846  TIP3      H1             24.5462495241      -25.9233917198      -40.8291532698  TIP3      2746            0.0000000000
     22038      2846  TIP3      H2             23.0587634262      -25.7487100543      -41.1438705701  TIP3      2746            0.0000000000
     22039      2847  TIP3      OH2            23.4507054477      -23.6457917992      -36.4252512761  TIP3      2747            0.0000000000
     22040      2847  TIP3      H1             23.7263303386      -24.5506922232      -36.1382154908  TIP3      2747            0.0000000000
     22041      2847  TIP3      H2             24.1829135110      -23.4816702259      -37.0728120244  TIP3      2747            0.0000000000
     22042      2848  TIP3      OH2            24.0911916003      -23.4562708901      -30.8677968219  TIP3      2748            0.0000000000
     22043      2848  TIP3      H1             25.0447675373      -23.4470908251      -31.0978076145  TIP3      2748            0.0000000000
     22044      2848  TIP3      H2             24.2022555221      -23.2893527835      -29.9107342490  TIP3      2748            0.0000000000
     22045      2849  TIP3      OH2            24.4453839724      -22.5866190511      -28.2408591156  TIP3      2749            0.0000000000
     22046      2849  TIP3      H1             23.5314170355      -22.3225868168      -28.0111975693  TIP3      2749            0.0000000000
     22047      2849  TIP3      H2             24.8810976358      -21.7424641713      -28.4902484643  TIP3      2749            0.0000000000
     22048      2850  TIP3      OH2             8.3312814182      -24.8384815498      -24.9281374893  TIP3      2750            0.0000000000
     22049      2850  TIP3      H1              9.2555184195      -25.1000830502      -24.7909713620  TIP3      2750            0.0000000000
     22050      2850  TIP3      H2              7.8281184961      -25.6481740295      -24.7042756093  TIP3      2750            0.0000000000
     22051      2851  TIP3      OH2            26.5586200822      -28.8393264045      -23.5726090406  TIP3      2751            0.0000000000
     22052      2851  TIP3      H1             27.2096005482      -28.5770519517      -22.8938482165  TIP3      2751            0.0000000000
     22053      2851  TIP3      H2             26.0381386601      -28.0204055357      -23.6825658126  TIP3      2751            0.0000000000
     22054      2852  TIP3      OH2            24.3268064099      -26.0982626943      -35.8761088005  TIP3      2752            0.0000000000
     22055      2852  TIP3      H1             24.6603179414      -26.6045261254      -35.1087043345  TIP3      2752            0.0000000000
     22056      2852  TIP3      H2             23.9474966255      -26.8106789411      -36.4220332213  TIP3      2752            0.0000000000
     22057      2853  TIP3      OH2             9.6343104178      -25.8379772942      -31.9306098086  TIP3      2753            0.0000000000
     22058      2853  TIP3      H1              9.9814202175      -26.7448332788      -31.7818907874  TIP3      2753            0.0000000000
     22059      2853  TIP3      H2             10.4356189273      -25.3235657022      -31.7719837765  TIP3      2753            0.0000000000
     22060      2854  TIP3      OH2             8.2789304976      -22.9587200772      -30.6233933731  TIP3      2754            0.0000000000
     22061      2854  TIP3      H1              8.6860260753      -23.3848020152      -31.3945808158  TIP3      2754            0.0000000000
     22062      2854  TIP3      H2              8.9434969210      -22.2917690668      -30.4044314756  TIP3      2754            0.0000000000
     22063      2855  TIP3      OH2            25.3397782935      -26.5485677059      -24.3268234282  TIP3      2755            0.0000000000
     22064      2855  TIP3      H1             24.8874142774      -25.8695033015      -24.8832806880  TIP3      2755            0.0000000000
     22065      2855  TIP3      H2             25.5679150257      -27.1383754820      -25.0739554068  TIP3      2755            0.0000000000
     22066      2856  TIP3      OH2            25.9723445583      -26.7259538794      -40.2026100438  TIP3      2756            0.0000000000
     22067      2856  TIP3      H1             26.2979735607      -26.8684483770      -41.1287418589  TIP3      2756            0.0000000000
     22068      2856  TIP3      H2             26.7771360096      -26.3404810008      -39.7988125161  TIP3      2756            0.0000000000
     22069      2857  TIP3      OH2             8.1716640499      -26.4309534153      -36.7933556053  TIP3      2757            0.0000000000
     22070      2857  TIP3      H1              7.2472641294      -26.2881544458      -37.0576570360  TIP3      2757            0.0000000000
     22071      2857  TIP3      H2              8.6174362273      -25.9441720408      -37.5231748775  TIP3      2757            0.0000000000
     22072      2858  TIP3      OH2            23.3134963555      -11.8901506605      -34.8243173625  TIP3      2758            0.0000000000
     22073      2858  TIP3      H1             24.1355520335      -12.0196997550      -35.3436146789  TIP3      2758            0.0000000000
     22074      2858  TIP3      H2             23.6265441251      -11.3755497749      -34.0526681497  TIP3      2758            0.0000000000
     22075      2859  TIP3      OH2             8.2340718955      -28.1399325913      -29.0676625151  TIP3      2759            0.0000000000
     22076      2859  TIP3      H1              8.0435763789      -28.0739861593      -28.1291393020  TIP3      2759            0.0000000000
     22077      2859  TIP3      H2              7.8963773371      -27.2842530767      -29.3956133259  TIP3      2759            0.0000000000
     22078      2860  TIP3      OH2            11.0371803211      -14.8033423407      -24.4152979787  TIP3      2760            0.0000000000
     22079      2860  TIP3      H1             10.3068362400      -15.3785998365      -24.7129955944  TIP3      2760            0.0000000000
     22080      2860  TIP3      H2             11.2268668124      -15.1735169218      -23.5329513008  TIP3      2760            0.0000000000
     22081      2861  TIP3      OH2            13.6667310783      -13.2486098509      -27.8368234371  TIP3      2761            0.0000000000
     22082      2861  TIP3      H1             13.6383573732      -12.3490982291      -28.2345668559  TIP3      2761            0.0000000000
     22083      2861  TIP3      H2             14.6192460785      -13.4374222307      -27.9609223348  TIP3      2761            0.0000000000
     22084      2862  TIP3      OH2            17.7875812002      -12.0895837016      -25.4292506059  TIP3      2762            0.0000000000
     22085      2862  TIP3      H1             17.9083082249      -12.4013145491      -24.5257105783  TIP3      2762            0.0000000000
     22086      2862  TIP3      H2             18.6153794317      -11.5681684444      -25.5604541063  TIP3      2762            0.0000000000
     22087      2863  TIP3      OH2            20.0465142774      -10.8015909627      -25.8688772865  TIP3      2763            0.0000000000
     22088      2863  TIP3      H1             20.6428993595      -11.3756665819      -26.3657209197  TIP3      2763            0.0000000000
     22089      2863  TIP3      H2             20.6001754479      -10.5147326002      -25.1101148882  TIP3      2763            0.0000000000
     22090      2864  TIP3      OH2            24.6079514294      -28.2814084726      -26.3518182875  TIP3      2764            0.0000000000
     22091      2864  TIP3      H1             23.6746762211      -28.0744363962      -26.5184596758  TIP3      2764            0.0000000000
     22092      2864  TIP3      H2             24.6350268795      -29.2434383962      -26.4323516423  TIP3      2764            0.0000000000
     22093      2865  TIP3      OH2            10.9782720611      -10.4052766886      -27.9164241660  TIP3      2765            0.0000000000
     22094      2865  TIP3      H1             10.1841580969       -9.9454226508      -28.2562337717  TIP3      2765            0.0000000000
     22095      2865  TIP3      H2             10.8306415458      -10.2138513394      -26.9704062298  TIP3      2765            0.0000000000
     22096      2866  TIP3      OH2            13.3843379237      -10.8925877731      -28.9842443618  TIP3      2766            0.0000000000
     22097      2866  TIP3      H1             12.5169640945      -10.8544304186      -28.5054110840  TIP3      2766            0.0000000000
     22098      2866  TIP3      H2             13.2045454908      -10.3172688704      -29.7474742731  TIP3      2766            0.0000000000
     22099      2867  TIP3      OH2            18.0224535630      -11.3935454033      -29.6483075798  TIP3      2767            0.0000000000
     22100      2867  TIP3      H1             17.2244121396      -10.9487271464      -30.0016740141  TIP3      2767            0.0000000000
     22101      2867  TIP3      H2             18.3872150514      -10.6718734256      -29.0877960970  TIP3      2767            0.0000000000
     22102      2868  TIP3      OH2            20.2791798178      -12.5672581696      -28.3758668669  TIP3      2768            0.0000000000
     22103      2868  TIP3      H1             19.5549543576      -12.2983820168      -28.9774756794  TIP3      2768            0.0000000000
     22104      2868  TIP3      H2             20.9697401735      -11.9606290508      -28.6892394811  TIP3      2768            0.0000000000
     22105      2869  TIP3      OH2            22.7701272309      -10.7110095609      -28.6557359739  TIP3      2769            0.0000000000
     22106      2869  TIP3      H1             22.8598243784       -9.7618122097      -28.8920796819  TIP3      2769            0.0000000000
     22107      2869  TIP3      H2             23.0623938221      -11.1215476269      -29.5025165794  TIP3      2769            0.0000000000
     22108      2870  TIP3      OH2            10.6845914925      -11.8888859488      -30.9471906290  TIP3      2770            0.0000000000
     22109      2870  TIP3      H1             10.4087435910      -12.5999639906      -30.3287527993  TIP3      2770            0.0000000000
     22110      2870  TIP3      H2             11.5092436832      -12.2629780434      -31.3299900171  TIP3      2770            0.0000000000
     22111      2871  TIP3      OH2            12.8257590599      -12.8529837585      -32.2645368131  TIP3      2771            0.0000000000
     22112      2871  TIP3      H1             12.5642539819      -13.7534931680      -32.0001863691  TIP3      2771            0.0000000000
     22113      2871  TIP3      H2             13.7143683254      -12.8346190813      -31.8269120904  TIP3      2771            0.0000000000
     22114      2872  TIP3      OH2            15.0592099913      -13.0768191163      -30.9714014294  TIP3      2772            0.0000000000
     22115      2872  TIP3      H1             15.4285212222      -13.9738197651      -31.0656539262  TIP3      2772            0.0000000000
     22116      2872  TIP3      H2             15.2069438489      -12.9376811633      -30.0151359485  TIP3      2772            0.0000000000
     22117      2873  TIP3      OH2            19.0411681249      -27.3671417235      -32.3234151285  TIP3      2773            0.0000000000
     22118      2873  TIP3      H1             18.1587338516      -27.5822566735      -31.9827547688  TIP3      2773            0.0000000000
     22119      2873  TIP3      H2             19.3539731454      -28.2828796799      -32.4765258164  TIP3      2773            0.0000000000
     22120      2874  TIP3      OH2            23.4490301637      -27.9307540432      -31.9542542223  TIP3      2774            0.0000000000
     22121      2874  TIP3      H1             24.1710542543      -28.0439313880      -32.6066610705  TIP3      2774            0.0000000000
     22122      2874  TIP3      H2             22.7011961375      -28.3170969227      -32.4627678088  TIP3      2774            0.0000000000
     22123      2875  TIP3      OH2            25.1893143063      -27.8703847089      -34.0399040445  TIP3      2775            0.0000000000
     22124      2875  TIP3      H1             25.4773009878      -28.6030976012      -34.6252968833  TIP3      2775            0.0000000000
     22125      2875  TIP3      H2             25.9819045559      -27.2916357740      -33.9171307229  TIP3      2775            0.0000000000
     22126      2876  TIP3      OH2            10.9290762445      -28.5088165903      -34.5305485914  TIP3      2776            0.0000000000
     22127      2876  TIP3      H1             10.3894265619      -28.4353828050      -35.3281422487  TIP3      2776            0.0000000000
     22128      2876  TIP3      H2             11.1179819013      -29.4762329974      -34.5008420477  TIP3      2776            0.0000000000
     22129      2877  TIP3      OH2             9.5057884765      -28.5601095454      -38.9626964756  TIP3      2777            0.0000000000
     22130      2877  TIP3      H1              9.7231707501      -27.9873240725      -39.7167058251  TIP3      2777            0.0000000000
     22131      2877  TIP3      H2              8.7252285490      -28.1077366513      -38.6135815404  TIP3      2777            0.0000000000
     22132      2878  TIP3      OH2            16.1095824592      -28.8047290797      -34.7819750349  TIP3      2778            0.0000000000
     22133      2878  TIP3      H1             16.4298667637      -27.9301953415      -35.0769667173  TIP3      2778            0.0000000000
     22134      2878  TIP3      H2             16.1969467170      -28.7270847147      -33.8071283683  TIP3      2778            0.0000000000
     22135      2879  TIP3      OH2            21.5538698138      -28.5802538667      -33.5645448499  TIP3      2779            0.0000000000
     22136      2879  TIP3      H1             20.9706743455      -28.1764118862      -34.2070070441  TIP3      2779            0.0000000000
     22137      2879  TIP3      H2             21.2242950421      -29.5072134689      -33.5591440548  TIP3      2779            0.0000000000
     22138      2880  TIP3      OH2            22.6834937467      -28.2974255563      -37.2832650073  TIP3      2780            0.0000000000
     22139      2880  TIP3      H1             21.8812658385      -27.7508330336      -37.2305958334  TIP3      2780            0.0000000000
     22140      2880  TIP3      H2             22.3034992341      -29.1621771530      -37.5381731804  TIP3      2780            0.0000000000
     22141      2881  TIP3      OH2             9.6507403001      -12.5986106423      -38.1192982029  TIP3      2781            0.0000000000
     22142      2881  TIP3      H1              8.6950048583      -12.4987517116      -38.3179118613  TIP3      2781            0.0000000000
     22143      2881  TIP3      H2              9.9097785643      -11.6537208144      -38.1450896638  TIP3      2781            0.0000000000
     22144      2882  TIP3      OH2            11.1298235027      -26.6430646509      -40.6391078870  TIP3      2782            0.0000000000
     22145      2882  TIP3      H1             11.9483832601      -27.0409000212      -40.9549047601  TIP3      2782            0.0000000000
     22146      2882  TIP3      H2             11.4568909994      -26.2393601792      -39.8194068456  TIP3      2782            0.0000000000
     22147      2883  TIP3      OH2            16.4560643426      -26.4595756642      -37.9337433106  TIP3      2783            0.0000000000
     22148      2883  TIP3      H1             16.8777239155      -27.1054918867      -37.3495658699  TIP3      2783            0.0000000000
     22149      2883  TIP3      H2             16.7811398744      -25.6175425656      -37.5569399820  TIP3      2783            0.0000000000
     22150      2884  TIP3      OH2            18.6215618622      -10.9431509588      -39.7682053050  TIP3      2784            0.0000000000
     22151      2884  TIP3      H1             19.5835788152      -11.1328956149      -39.7812948067  TIP3      2784            0.0000000000
     22152      2884  TIP3      H2             18.3230317725      -11.7369363742      -40.2541534188  TIP3      2784            0.0000000000
     22153      2885  TIP3      OH2            25.4232734370      -12.1463928443      -36.5489379006  TIP3      2785            0.0000000000
     22154      2885  TIP3      H1             25.1488189847      -12.9196069471      -37.0954152576  TIP3      2785            0.0000000000
     22155      2885  TIP3      H2             25.3626298030      -11.4086403077      -37.1964591333  TIP3      2785            0.0000000000
     22156      2886  TIP3      OH2            10.5916996070      -27.5721200031      -25.0819792008  TIP3      2786            0.0000000000
     22157      2886  TIP3      H1             10.5115330263      -28.5072223894      -25.3627133747  TIP3      2786            0.0000000000
     22158      2886  TIP3      H2             11.2961762002      -27.6913158509      -24.4120843833  TIP3      2786            0.0000000000
     22159      2887  TIP3      OH2            12.8041894795      -28.1249798428      -23.6032421541  TIP3      2787            0.0000000000
     22160      2887  TIP3      H1             13.5713004235      -28.1832274727      -24.2073258146  TIP3      2787            0.0000000000
     22161      2887  TIP3      H2             12.7123123323      -29.0614338490      -23.3298377540  TIP3      2787            0.0000000000
     22162      2888  TIP3      OH2            11.5346785468      -11.4666513181      -40.8022797324  TIP3      2788            0.0000000000
     22163      2888  TIP3      H1             11.1371872652      -11.0420751424      -40.0234566244  TIP3      2788            0.0000000000
     22164      2888  TIP3      H2             11.8537562997      -12.2917796100      -40.4208241970  TIP3      2788            0.0000000000
     22165      2889  TIP3      OH2            21.2856461930       29.7717155131      -23.3511310992  TIP3      2789            0.0000000000
     22166      2889  TIP3      H1             21.3398119486       28.8517353214      -23.0081316482  TIP3      2789            0.0000000000
     22167      2889  TIP3      H2             21.5883397711       29.6583781919      -24.2556796897  TIP3      2789            0.0000000000
     22168      2890  TIP3      OH2            24.6380730982      -13.1320873552      -24.7136395745  TIP3      2790            0.0000000000
     22169      2890  TIP3      H1             24.2487294870      -13.0793726141      -25.6189774442  TIP3      2790            0.0000000000
     22170      2890  TIP3      H2             24.5391096739      -12.1994729349      -24.4492508951  TIP3      2790            0.0000000000
     22171      2891  TIP3      OH2            27.4675575878      -22.8762300140      -35.8711088189  TIP3      2791            0.0000000000
     22172      2891  TIP3      H1             27.2038613955      -21.9903986726      -35.5805871312  TIP3      2791            0.0000000000
     22173      2891  TIP3      H2             26.6166775201      -23.3362584975      -35.7927223184  TIP3      2791            0.0000000000
     22174      2892  TIP3      OH2            28.1309275527      -20.0798625972      -33.5407166770  TIP3      2792            0.0000000000
     22175      2892  TIP3      H1             28.2230655579      -21.0538441355      -33.4594031228  TIP3      2792            0.0000000000
     22176      2892  TIP3      H2             29.0559682867      -19.7865849724      -33.3822418661  TIP3      2792            0.0000000000
     22177      2893  TIP3      OH2            28.4213735043      -22.7670940999      -33.1302181482  TIP3      2793            0.0000000000
     22178      2893  TIP3      H1             29.2688431615      -22.5293628029      -32.7138488713  TIP3      2793            0.0000000000
     22179      2893  TIP3      H2             28.7014292861      -23.4029517720      -33.8118837076  TIP3      2793            0.0000000000
     22180      2894  TIP3      OH2            27.9454145146      -17.0525976903      -37.2560383257  TIP3      2794            0.0000000000
     22181      2894  TIP3      H1             28.3734332939      -16.7006310209      -38.0512960984  TIP3      2794            0.0000000000
     22182      2894  TIP3      H2             28.1266185125      -16.3175940586      -36.6430137541  TIP3      2794            0.0000000000
     22183      2895  TIP3      OH2            27.7417048470      -17.7235051603      -28.0713747975  TIP3      2795            0.0000000000
     22184      2895  TIP3      H1             27.2722572946      -17.8718691171      -28.9149687786  TIP3      2795            0.0000000000
     22185      2895  TIP3      H2             27.7722381544      -18.6452424675      -27.7306850803  TIP3      2795            0.0000000000
     22186      2896  TIP3      OH2            27.4297030135      -14.9741185900      -31.6564951847  TIP3      2796            0.0000000000
     22187      2896  TIP3      H1             28.3269274763      -15.2093142679      -31.9569101105  TIP3      2796            0.0000000000
     22188      2896  TIP3      H2             27.6331968920      -14.4505350984      -30.8624374271  TIP3      2796            0.0000000000
     22189      2897  TIP3      OH2            27.0738629615      -25.9724059064      -33.7943214415  TIP3      2797            0.0000000000
     22190      2897  TIP3      H1             27.4022648023      -25.8345060284      -32.8806802570  TIP3      2797            0.0000000000
     22191      2897  TIP3      H2             27.8018434160      -25.5694800816      -34.2815651671  TIP3      2797            0.0000000000
     22192      2898  TIP3      OH2            27.5642032742      -24.8842667767      -38.6732910202  TIP3      2798            0.0000000000
     22193      2898  TIP3      H1             28.0505262870      -24.2887698102      -39.2732173843  TIP3      2798            0.0000000000
     22194      2898  TIP3      H2             26.8502157177      -24.3063050444      -38.3364691370  TIP3      2798            0.0000000000
     22195      2899  TIP3      OH2            27.6104624844      -20.1410684949      -26.8610747215  TIP3      2799            0.0000000000
     22196      2899  TIP3      H1             27.7429213590      -20.7978485029      -26.1453772413  TIP3      2799            0.0000000000
     22197      2899  TIP3      H2             26.8275021167      -20.5219805608      -27.3077767831  TIP3      2799            0.0000000000
     22198      2900  TIP3      OH2            29.2966768688      -19.2944243251      -40.2578695294  TIP3      2800            0.0000000000
     22199      2900  TIP3      H1             29.4694344669      -18.4595671390      -39.7938112770  TIP3      2800            0.0000000000
     22200      2900  TIP3      H2             28.3329758128      -19.4288178280      -40.1174024385  TIP3      2800            0.0000000000
     22201      2901  TIP3      OH2            28.6057044836      -13.8047767390      -29.1421337824  TIP3      2801            0.0000000000
     22202      2901  TIP3      H1             29.2678508932      -14.4327068310      -28.8260528470  TIP3      2801            0.0000000000
     22203      2901  TIP3      H2             28.1409462751      -13.5921887525      -28.3170651014  TIP3      2801            0.0000000000
     22204      2902  TIP3      OH2            28.8570702130      -22.6772851059      -40.2243380517  TIP3      2802            0.0000000000
     22205      2902  TIP3      H1             28.7294810767      -21.7170078495      -40.2128614721  TIP3      2802            0.0000000000
     22206      2902  TIP3      H2             28.8578885531      -22.8486747436      -41.1956483557  TIP3      2802            0.0000000000
     22207      2903  TIP3      OH2            28.7663726062      -14.4070430371      -35.7629155015  TIP3      2803            0.0000000000
     22208      2903  TIP3      H1             27.8592887352      -14.2941440349      -35.4540520375  TIP3      2803            0.0000000000
     22209      2903  TIP3      H2             28.7318981473      -13.7904101060      -36.5325762545  TIP3      2803            0.0000000000
     22210      2904  TIP3      OH2            27.9709561583      -11.3337244622      -24.3278733527  TIP3      2804            0.0000000000
     22211      2904  TIP3      H1             28.9229109851      -11.3353395301      -24.1440396307  TIP3      2804            0.0000000000
     22212      2904  TIP3      H2             27.8622649394      -12.2040311255      -24.7291288532  TIP3      2804            0.0000000000
     22213      2905  TIP3      OH2            28.3061090335      -18.5863225457      -23.5252601320  TIP3      2805            0.0000000000
     22214      2905  TIP3      H1             27.7818912971      -19.3033764094      -23.9094172408  TIP3      2805            0.0000000000
     22215      2905  TIP3      H2             27.7981340382      -17.7944432680      -23.7971045570  TIP3      2805            0.0000000000
     22216      2906  TIP3      OH2            29.1531605016      -21.2515231309      -24.5423571040  TIP3      2806            0.0000000000
     22217      2906  TIP3      H1             28.8464474995      -22.1050600430      -24.8745439172  TIP3      2806            0.0000000000
     22218      2906  TIP3      H2             29.0014305373      -21.3433685815      -23.5815793562  TIP3      2806            0.0000000000
     22219      2907  TIP3      OH2            28.0971001125      -16.0628654085      -40.0799567766  TIP3      2807            0.0000000000
     22220      2907  TIP3      H1             29.0725704326      -15.9404036438      -40.0173001160  TIP3      2807            0.0000000000
     22221      2907  TIP3      H2             28.0584331548      -16.3722048534      -41.0053078264  TIP3      2807            0.0000000000
     22222      2908  TIP3      OH2            26.6973336664      -11.0678947066      -34.5154874324  TIP3      2808            0.0000000000
     22223      2908  TIP3      H1             26.1567735272      -11.6022179407      -35.1449440517  TIP3      2808            0.0000000000
     22224      2908  TIP3      H2             27.1773828614      -11.7483048018      -33.9886443602  TIP3      2808            0.0000000000
     22225      2909  TIP3      OH2            28.0021174019      -12.7822267189      -33.0792503418  TIP3      2809            0.0000000000
     22226      2909  TIP3      H1             27.5811912694      -13.5852544405      -32.7047852284  TIP3      2809            0.0000000000
     22227      2909  TIP3      H2             28.3382695633      -12.3099528371      -32.2829004035  TIP3      2809            0.0000000000
     22228      2910  TIP3      OH2            27.7882698079      -19.0923898066      -30.8302196696  TIP3      2810            0.0000000000
     22229      2910  TIP3      H1             27.9023790370      -19.5686686646      -31.6734810122  TIP3      2810            0.0000000000
     22230      2910  TIP3      H2             28.6953341094      -19.1713917930      -30.4501365587  TIP3      2810            0.0000000000
     22231      2911  TIP3      OH2            27.1895944804      -24.3914529723      -24.7423886596  TIP3      2811            0.0000000000
     22232      2911  TIP3      H1             28.1360986877      -24.3143170775      -24.9784061470  TIP3      2811            0.0000000000
     22233      2911  TIP3      H2             27.1925047974      -25.2182109582      -24.2411132758  TIP3      2811            0.0000000000
     22234      2912  TIP3      OH2            28.2383819587      -26.1563030125      -31.3068404177  TIP3      2812            0.0000000000
     22235      2912  TIP3      H1             28.8176774709      -26.9251756183      -31.3781570413  TIP3      2812            0.0000000000
     22236      2912  TIP3      H2             28.9272198259      -25.4641289848      -31.3148622133  TIP3      2812            0.0000000000
     22237      2913  TIP3      OH2            26.6737032839      -22.9142855818      -31.0062081489  TIP3      2813            0.0000000000
     22238      2913  TIP3      H1             27.0576894332      -22.7449951849      -31.8914559257  TIP3      2813            0.0000000000
     22239      2913  TIP3      H2             27.4640042747      -23.0476791255      -30.4631600644  TIP3      2813            0.0000000000
     22240      2914  TIP3      OH2            27.5930282832      -26.9195238826      -36.9335214449  TIP3      2814            0.0000000000
     22241      2914  TIP3      H1             26.7993511820      -26.5856247833      -36.4955214873  TIP3      2814            0.0000000000
     22242      2914  TIP3      H2             27.6752926662      -26.2211203984      -37.6216818743  TIP3      2814            0.0000000000
     22243      2915  TIP3      OH2            26.6517038114      -28.1349389381      -28.2213651039  TIP3      2815            0.0000000000
     22244      2915  TIP3      H1             26.0254746889      -28.0671452000      -27.4732159814  TIP3      2815            0.0000000000
     22245      2915  TIP3      H2             26.3143172982      -27.4196808563      -28.8010598193  TIP3      2815            0.0000000000
     22246      2916  TIP3      OH2           -29.8391132379      -11.6111955484      -30.8910878487  TIP3      2816            0.0000000000
     22247      2916  TIP3      H1            -29.9695166197      -12.1902359281      -30.1159941044  TIP3      2816            0.0000000000
     22248      2916  TIP3      H2            -28.8582079357      -11.5701278422      -30.9677946304  TIP3      2816            0.0000000000
     22249      2917  TIP3      OH2            28.4139173611      -28.5316900736      -39.0501570927  TIP3      2817            0.0000000000
     22250      2917  TIP3      H1             29.3925959621      -28.5523065230      -38.9560246082  TIP3      2817            0.0000000000
     22251      2917  TIP3      H2             28.1189378022      -27.9980584079      -38.2841827633  TIP3      2817            0.0000000000
     22252      2918  TIP3      OH2            28.3794993092      -12.8237081525      -37.9008724328  TIP3      2818            0.0000000000
     22253      2918  TIP3      H1             27.5423522461      -12.7402806687      -38.3734332892  TIP3      2818            0.0000000000
     22254      2918  TIP3      H2             28.4869625257      -11.9353949215      -37.5136960719  TIP3      2818            0.0000000000
     22255      2919  TIP3      OH2           -17.3729379526       -0.4024929580      -34.7280927858  TIP3      2819            0.0000000000
     22256      2919  TIP3      H1            -17.6321654673        0.4073316627      -34.2566097139  TIP3      2819            0.0000000000
     22257      2919  TIP3      H2            -18.0207382357       -0.4022788248      -35.4596287812  TIP3      2819            0.0000000000
     22258      2920  TIP3      OH2           -18.6701125004       -1.5526123633      -31.3546054820  TIP3      2820            0.0000000000
     22259      2920  TIP3      H1            -18.6597415532       -1.9566290816      -30.4634296186  TIP3      2820            0.0000000000
     22260      2920  TIP3      H2            -19.5766500266       -1.7431558643      -31.6528365382  TIP3      2820            0.0000000000
     22261      2921  TIP3      OH2           -26.1186277611       -1.6144528974      -29.9182537621  TIP3      2821            0.0000000000
     22262      2921  TIP3      H1            -26.0129921930       -2.4063393296      -29.3714419391  TIP3      2821            0.0000000000
     22263      2921  TIP3      H2            -25.6652617589       -0.9431277302      -29.3802079804  TIP3      2821            0.0000000000
     22264      2922  TIP3      OH2           -15.3718815155        1.6037982242      -32.6938692956  TIP3      2822            0.0000000000
     22265      2922  TIP3      H1            -15.4480446051        0.8699244589      -32.0560112475  TIP3      2822            0.0000000000
     22266      2922  TIP3      H2            -15.1053863856        2.3405049369      -32.1143788670  TIP3      2822            0.0000000000
     22267      2923  TIP3      OH2           -25.5867980179        3.0329774751      -32.1636779272  TIP3      2823            0.0000000000
     22268      2923  TIP3      H1            -25.7006210225        2.0558465468      -32.2395035934  TIP3      2823            0.0000000000
     22269      2923  TIP3      H2            -24.6753702183        3.0084789316      -31.8212894756  TIP3      2823            0.0000000000
     22270      2924  TIP3      OH2           -28.7824706854       -3.2654956929      -35.5198216865  TIP3      2824            0.0000000000
     22271      2924  TIP3      H1            -29.4366960406       -2.5837943552      -35.7231615625  TIP3      2824            0.0000000000
     22272      2924  TIP3      H2            -29.2657867788       -4.0540350766      -35.8086743473  TIP3      2824            0.0000000000
     22273      2925  TIP3      OH2           -28.2431534150       -1.4087498302      -32.8771743623  TIP3      2825            0.0000000000
     22274      2925  TIP3      H1            -27.7531947139       -2.2592101986      -32.8223456496  TIP3      2825            0.0000000000
     22275      2925  TIP3      H2            -27.8359050130       -1.0152066587      -33.6634757234  TIP3      2825            0.0000000000
     22276      2926  TIP3      OH2           -17.9083887167        7.0404799844      -32.8043699931  TIP3      2826            0.0000000000
     22277      2926  TIP3      H1            -17.3123242069        6.4172046672      -33.2972704745  TIP3      2826            0.0000000000
     22278      2926  TIP3      H2            -18.3440306954        6.4072511628      -32.2231621758  TIP3      2826            0.0000000000
     22279      2927  TIP3      OH2           -20.8240493449        1.2226113543      -30.1416182197  TIP3      2827            0.0000000000
     22280      2927  TIP3      H1            -20.4981709320        1.3502436159      -31.0407762367  TIP3      2827            0.0000000000
     22281      2927  TIP3      H2            -19.9715518209        1.3302311689      -29.6604751457  TIP3      2827            0.0000000000
     22282      2928  TIP3      OH2           -11.9558142752       -7.2639507948      -30.1319157049  TIP3      2828            0.0000000000
     22283      2928  TIP3      H1            -11.8832562144       -6.6870249892      -29.3459172449  TIP3      2828            0.0000000000
     22284      2928  TIP3      H2            -11.0824631981       -7.1053415843      -30.5375421704  TIP3      2828            0.0000000000
     22285      2929  TIP3      OH2           -16.6765968931       -4.2102310925      -30.1445417463  TIP3      2829            0.0000000000
     22286      2929  TIP3      H1            -16.4951948007       -5.0651295693      -29.7264341765  TIP3      2829            0.0000000000
     22287      2929  TIP3      H2            -16.7224410874       -4.4767678392      -31.0818451603  TIP3      2829            0.0000000000
     22288      2930  TIP3      OH2           -24.1968181059       -6.5458407430      -33.4534041748  TIP3      2830            0.0000000000
     22289      2930  TIP3      H1            -23.9140912846       -5.7611901856      -33.9700375911  TIP3      2830            0.0000000000
     22290      2930  TIP3      H2            -24.3903802997       -7.1608986820      -34.1940200708  TIP3      2830            0.0000000000
     22291      2931  TIP3      OH2           -16.6193396880       -6.3467585868      -34.8589069711  TIP3      2831            0.0000000000
     22292      2931  TIP3      H1            -16.0907769609       -6.6200100476      -34.0678725967  TIP3      2831            0.0000000000
     22293      2931  TIP3      H2            -16.1074822481       -5.5677152595      -35.1187850249  TIP3      2831            0.0000000000
     22294      2932  TIP3      OH2           -26.7676496360       -3.9698929695      -32.4963542784  TIP3      2832            0.0000000000
     22295      2932  TIP3      H1            -26.0179548153       -4.5091660937      -32.1639470671  TIP3      2832            0.0000000000
     22296      2932  TIP3      H2            -26.8177026234       -4.3204564369      -33.4141319829  TIP3      2832            0.0000000000
     22297      2933  TIP3      OH2           -22.5891431197       -2.2657060315      -33.1497611986  TIP3      2833            0.0000000000
     22298      2933  TIP3      H1            -21.7133413135       -2.6367572654      -32.9018845827  TIP3      2833            0.0000000000
     22299      2933  TIP3      H2            -22.9384909621       -3.0417209550      -33.6437256748  TIP3      2833            0.0000000000
     22300      2934  TIP3      OH2           -11.7283186924       -5.8499653411      -27.8422459626  TIP3      2834            0.0000000000
     22301      2934  TIP3      H1            -12.0157032425       -5.0064025817      -28.2691406090  TIP3      2834            0.0000000000
     22302      2934  TIP3      H2            -11.4916601858       -5.5338317804      -26.9600911727  TIP3      2834            0.0000000000
     22303      2935  TIP3      OH2           -25.1140814725       -7.4795615201      -29.1500919138  TIP3      2835            0.0000000000
     22304      2935  TIP3      H1            -25.3944656523       -6.8909688753      -29.8891142309  TIP3      2835            0.0000000000
     22305      2935  TIP3      H2            -25.6662473463       -7.1670179634      -28.4112634941  TIP3      2835            0.0000000000
     22306      2936  TIP3      OH2           -18.4844374497        2.1358938145      -35.5853438993  TIP3      2836            0.0000000000
     22307      2936  TIP3      H1            -18.5468494968        2.1387336332      -36.5613241950  TIP3      2836            0.0000000000
     22308      2936  TIP3      H2            -19.0568111982        2.9039155221      -35.3677686339  TIP3      2836            0.0000000000
     22309      2937  TIP3      OH2           -23.0867214912        0.1037026211      -28.9559853358  TIP3      2837            0.0000000000
     22310      2937  TIP3      H1            -23.7113688747        0.7806729317      -28.6245126943  TIP3      2837            0.0000000000
     22311      2937  TIP3      H2            -22.3798283825        0.6790520364      -29.3296683218  TIP3      2837            0.0000000000
     22312      2938  TIP3      OH2           -14.9494809900       -6.6009311420      -32.8347145506  TIP3      2838            0.0000000000
     22313      2938  TIP3      H1            -14.9782321600       -7.3339567165      -32.2148873857  TIP3      2838            0.0000000000
     22314      2938  TIP3      H2            -14.0538386466       -6.2623962835      -32.6943154040  TIP3      2838            0.0000000000
     22315      2939  TIP3      OH2           -25.2619405079       -5.6469910439      -31.1897547716  TIP3      2839            0.0000000000
     22316      2939  TIP3      H1            -24.6009002334       -5.0966908596      -30.7032637990  TIP3      2839            0.0000000000
     22317      2939  TIP3      H2            -24.7256465088       -5.9682055276      -31.9605263176  TIP3      2839            0.0000000000
     22318      2940  TIP3      OH2           -24.2415800816        2.6608758175      -28.5320285694  TIP3      2840            0.0000000000
     22319      2940  TIP3      H1            -24.3445522781        3.4922572035      -29.0117608636  TIP3      2840            0.0000000000
     22320      2940  TIP3      H2            -25.0995836579        2.6169334655      -28.0449949290  TIP3      2840            0.0000000000
     22321      2941  TIP3      OH2           -28.0699470120        2.3613567291      -37.4554598243  TIP3      2841            0.0000000000
     22322      2941  TIP3      H1            -28.1782311380        3.1060546536      -38.0590731226  TIP3      2841            0.0000000000
     22323      2941  TIP3      H2            -28.0251390438        2.7900377197      -36.5750400414  TIP3      2841            0.0000000000
     22324      2942  TIP3      OH2           -14.6874020203        3.6512581408      -30.6348732136  TIP3      2842            0.0000000000
     22325      2942  TIP3      H1            -15.6228605814        3.8088887807      -30.3752304783  TIP3      2842            0.0000000000
     22326      2942  TIP3      H2            -14.5272058267        4.4543604226      -31.1593355638  TIP3      2842            0.0000000000
     22327      2943  TIP3      OH2           -14.7635574512       -8.0256492111      -29.4026591411  TIP3      2843            0.0000000000
     22328      2943  TIP3      H1            -15.5484961730       -7.7226793328      -29.9164747363  TIP3      2843            0.0000000000
     22329      2943  TIP3      H2            -14.0168344218       -7.6237435941      -29.8864999141  TIP3      2843            0.0000000000
     22330      2944  TIP3      OH2           -21.5843423995      -10.0681259811      -31.4935685264  TIP3      2844            0.0000000000
     22331      2944  TIP3      H1            -21.8611984117      -10.8483462885      -31.9858161809  TIP3      2844            0.0000000000
     22332      2944  TIP3      H2            -22.4698350203       -9.6592220573      -31.2948876676  TIP3      2844            0.0000000000
     22333      2945  TIP3      OH2           -16.3327783535        5.4453625923      -34.1613403505  TIP3      2845            0.0000000000
     22334      2945  TIP3      H1            -16.0647206988        4.6353465049      -34.6442061362  TIP3      2845            0.0000000000
     22335      2945  TIP3      H2            -15.6011985107        6.0579823826      -34.4211407635  TIP3      2845            0.0000000000
     22336      2946  TIP3      OH2           -15.1904656428        3.3271635701      -35.4830362616  TIP3      2846            0.0000000000
     22337      2946  TIP3      H1            -15.2469139598        2.6265346223      -36.1675382134  TIP3      2846            0.0000000000
     22338      2946  TIP3      H2            -15.3307034558        2.7716323916      -34.6992169842  TIP3      2846            0.0000000000
     22339      2947  TIP3      OH2           -13.5596087885        2.1322528816      -26.7642387154  TIP3      2847            0.0000000000
     22340      2947  TIP3      H1            -13.4635793183        1.3343568523      -27.3398875720  TIP3      2847            0.0000000000
     22341      2947  TIP3      H2            -13.3925670002        2.8200957568      -27.4414649350  TIP3      2847            0.0000000000
     22342      2948  TIP3      OH2           -19.2242284720       -1.2026472639      -37.3653667906  TIP3      2848            0.0000000000
     22343      2948  TIP3      H1            -19.7533437239       -0.3808697972      -37.4955608824  TIP3      2848            0.0000000000
     22344      2948  TIP3      H2            -18.5249331086       -1.1280790190      -38.0354726269  TIP3      2848            0.0000000000
     22345      2949  TIP3      OH2           -18.8747674996       -2.2009369014      -40.1721786931  TIP3      2849            0.0000000000
     22346      2949  TIP3      H1            -18.0172924757       -2.0933265144      -39.7106785321  TIP3      2849            0.0000000000
     22347      2949  TIP3      H2            -18.9630426894       -3.1562834891      -40.2819349726  TIP3      2849            0.0000000000
     22348      2950  TIP3      OH2           -11.4098830811       -1.4153532169      -28.8896748880  TIP3      2850            0.0000000000
     22349      2950  TIP3      H1            -12.0420521933       -0.6710216394      -28.8974046758  TIP3      2850            0.0000000000
     22350      2950  TIP3      H2            -10.8246634017       -1.1328296478      -29.6248649904  TIP3      2850            0.0000000000
     22351      2951  TIP3      OH2           -15.0056630178       -0.8782368782      -35.9057205786  TIP3      2851            0.0000000000
     22352      2951  TIP3      H1            -15.8370728504       -0.7313167859      -35.3871995962  TIP3      2851            0.0000000000
     22353      2951  TIP3      H2            -14.5354517167       -1.4666781366      -35.2909738794  TIP3      2851            0.0000000000
     22354      2952  TIP3      OH2           -15.3852036640       -2.7197249221      -26.7601221974  TIP3      2852            0.0000000000
     22355      2952  TIP3      H1            -15.4503534164       -2.1543241558      -25.9616090255  TIP3      2852            0.0000000000
     22356      2952  TIP3      H2            -16.0547648618       -2.3045071044      -27.3316524447  TIP3      2852            0.0000000000
     22357      2953  TIP3      OH2           -24.1550120781       -0.5341318654      -34.2683429640  TIP3      2853            0.0000000000
     22358      2953  TIP3      H1            -24.3684889024       -0.9593310634      -35.1208976404  TIP3      2853            0.0000000000
     22359      2953  TIP3      H2            -23.4371181010       -1.1337990799      -33.9502077952  TIP3      2853            0.0000000000
     22360      2954  TIP3      OH2           -22.7378861012        2.9040010710      -31.7633486611  TIP3      2854            0.0000000000
     22361      2954  TIP3      H1            -22.5490680799        2.8704642161      -32.7149451041  TIP3      2854            0.0000000000
     22362      2954  TIP3      H2            -22.3762182956        2.0830881561      -31.3914812395  TIP3      2854            0.0000000000
     22363      2955  TIP3      OH2           -23.4289854415       -1.9291437003      -30.6700711157  TIP3      2855            0.0000000000
     22364      2955  TIP3      H1            -23.2305008737       -1.7936430701      -31.6228126288  TIP3      2855            0.0000000000
     22365      2955  TIP3      H2            -23.1903800259       -1.0791507296      -30.2553107146  TIP3      2855            0.0000000000
     22366      2956  TIP3      OH2           -17.2635695956        4.1179538728      -29.9861065826  TIP3      2856            0.0000000000
     22367      2956  TIP3      H1            -17.7140229547        4.7007143552      -29.3539513597  TIP3      2856            0.0000000000
     22368      2956  TIP3      H2            -17.4178956928        3.2308208878      -29.6029566278  TIP3      2856            0.0000000000
     22369      2957  TIP3      OH2           -23.0665662779        2.6395778734      -26.1184852801  TIP3      2857            0.0000000000
     22370      2957  TIP3      H1            -23.6907797479        3.2744791607      -25.6977934350  TIP3      2857            0.0000000000
     22371      2957  TIP3      H2            -23.3991586539        2.6381482071      -27.0551715628  TIP3      2857            0.0000000000
     22372      2958  TIP3      OH2           -16.5570958912       -1.5008809701      -38.1453821308  TIP3      2858            0.0000000000
     22373      2958  TIP3      H1            -15.9208331874       -1.2142992390      -37.4527306506  TIP3      2858            0.0000000000
     22374      2958  TIP3      H2            -16.2694498175       -0.9819565204      -38.9318946906  TIP3      2858            0.0000000000
     22375      2959  TIP3      OH2           -25.8871099454       -0.5730321817      -27.2870551899  TIP3      2859            0.0000000000
     22376      2959  TIP3      H1            -26.0378882551        0.0374972700      -26.5237140527  TIP3      2859            0.0000000000
     22377      2959  TIP3      H2            -26.7819542549       -0.9927534157      -27.3342493890  TIP3      2859            0.0000000000
     22378      2960  TIP3      OH2           -19.8920145467        4.4602251850      -35.4764641536  TIP3      2860            0.0000000000
     22379      2960  TIP3      H1            -19.4579035544        5.0815384745      -34.8776300194  TIP3      2860            0.0000000000
     22380      2960  TIP3      H2            -20.4102496249        5.0549787687      -36.0456645644  TIP3      2860            0.0000000000
     22381      2961  TIP3      OH2           -24.4050567119        4.8470153864      -25.1802051512  TIP3      2861            0.0000000000
     22382      2961  TIP3      H1            -24.6351112403        5.1627169453      -26.0787117594  TIP3      2861            0.0000000000
     22383      2961  TIP3      H2            -25.2867257181        4.5514678026      -24.8474843671  TIP3      2861            0.0000000000
     22384      2962  TIP3      OH2           -12.2950302339       -9.8544672561      -38.4012144945  TIP3      2862            0.0000000000
     22385      2962  TIP3      H1            -13.2237863937       -9.8284988529      -38.0831170813  TIP3      2862            0.0000000000
     22386      2962  TIP3      H2            -12.2565883751       -9.0223493539      -38.8986866623  TIP3      2862            0.0000000000
     22387      2963  TIP3      OH2           -25.1702382236       -1.5696588194      -36.6980602998  TIP3      2863            0.0000000000
     22388      2963  TIP3      H1            -25.5866276903       -0.8700925332      -37.2436038623  TIP3      2863            0.0000000000
     22389      2963  TIP3      H2            -25.5540182510       -2.3652126073      -37.0792999945  TIP3      2863            0.0000000000
     22390      2964  TIP3      OH2           -11.9723785054        4.3390466107      -40.4070211946  TIP3      2864            0.0000000000
     22391      2964  TIP3      H1            -11.6842478821        5.2299702801      -40.1112478402  TIP3      2864            0.0000000000
     22392      2964  TIP3      H2            -11.1414688192        3.8212898115      -40.3498158804  TIP3      2864            0.0000000000
     22393      2965  TIP3      OH2           -28.7685505421        1.4400307197      -27.4588527028  TIP3      2865            0.0000000000
     22394      2965  TIP3      H1            -29.7275248332        1.2934291559      -27.3894398890  TIP3      2865            0.0000000000
     22395      2965  TIP3      H2            -28.5146430448        0.8301354669      -28.1671159480  TIP3      2865            0.0000000000
     22396      2966  TIP3      OH2           -28.6242836677        4.0796744125      -31.7425303340  TIP3      2866            0.0000000000
     22397      2966  TIP3      H1            -27.8739505007        3.4551734770      -31.7668656465  TIP3      2866            0.0000000000
     22398      2966  TIP3      H2            -28.6496649075        4.3563327936      -30.8166955911  TIP3      2866            0.0000000000
     22399      2967  TIP3      OH2           -10.9549290778        4.8324591370      -25.6316970859  TIP3      2867            0.0000000000
     22400      2967  TIP3      H1            -11.1929035180        3.9119624811      -25.4604560901  TIP3      2867            0.0000000000
     22401      2967  TIP3      H2            -11.7204652842        5.3096209475      -25.2217988496  TIP3      2867            0.0000000000
     22402      2968  TIP3      OH2           -20.6546687192        4.1839088997      -26.2805531593  TIP3      2868            0.0000000000
     22403      2968  TIP3      H1            -20.5648302198        5.0858855521      -25.9124798137  TIP3      2868            0.0000000000
     22404      2968  TIP3      H2            -21.6042676458        3.9932155421      -26.1643164397  TIP3      2868            0.0000000000
     22405      2969  TIP3      OH2           -19.7123618333        7.8413855632      -37.2553317543  TIP3      2869            0.0000000000
     22406      2969  TIP3      H1            -19.5594384144        8.0669873491      -38.1964362002  TIP3      2869            0.0000000000
     22407      2969  TIP3      H2            -19.6457706838        8.7188424600      -36.8289409721  TIP3      2869            0.0000000000
     22408      2970  TIP3      OH2           -25.5319966292        6.4285825280      -35.0331987357  TIP3      2870            0.0000000000
     22409      2970  TIP3      H1            -25.4156533819        6.1918428426      -34.0857688832  TIP3      2870            0.0000000000
     22410      2970  TIP3      H2            -26.3470016464        5.9081488174      -35.1952421056  TIP3      2870            0.0000000000
     22411      2971  TIP3      OH2           -16.4760545241        7.1397221351      -39.8615779741  TIP3      2871            0.0000000000
     22412      2971  TIP3      H1            -15.8948622215        6.4021040899      -40.1227018398  TIP3      2871            0.0000000000
     22413      2971  TIP3      H2            -16.3679201481        7.1484599613      -38.8858821844  TIP3      2871            0.0000000000
     22414      2972  TIP3      OH2           -16.8046151742        7.0595504668      -37.0545105287  TIP3      2872            0.0000000000
     22415      2972  TIP3      H1            -17.7751518908        7.1423846365      -37.0133075232  TIP3      2872            0.0000000000
     22416      2972  TIP3      H2            -16.6665960172        6.2089198818      -36.6126529555  TIP3      2872            0.0000000000
     22417      2973  TIP3      OH2           -13.7216200400       -4.0589940072      -25.0219652076  TIP3      2873            0.0000000000
     22418      2973  TIP3      H1            -14.4016821461       -3.6400260187      -25.5874797857  TIP3      2873            0.0000000000
     22419      2973  TIP3      H2            -13.8292891633       -5.0033611987      -25.2450929196  TIP3      2873            0.0000000000
     22420      2974  TIP3      OH2           -26.4398869148        2.5771982355      -26.9355506258  TIP3      2874            0.0000000000
     22421      2974  TIP3      H1            -26.3329263750        2.0722199376      -26.0982563205  TIP3      2874            0.0000000000
     22422      2974  TIP3      H2            -27.3234818876        2.2093856712      -27.1752916041  TIP3      2874            0.0000000000
     22423      2975  TIP3      OH2           -23.9181117259       -9.0088297700      -30.9001829896  TIP3      2875            0.0000000000
     22424      2975  TIP3      H1            -24.7807893797       -8.9801111550      -31.3609823482  TIP3      2875            0.0000000000
     22425      2975  TIP3      H2            -24.1645400055       -8.5551112663      -30.0609571389  TIP3      2875            0.0000000000
     22426      2976  TIP3      OH2           -18.8900442000       -9.3597559106      -28.0034234430  TIP3      2876            0.0000000000
     22427      2976  TIP3      H1            -18.5978593824       -9.8555257030      -27.2040486353  TIP3      2876            0.0000000000
     22428      2976  TIP3      H2            -19.8606778827       -9.2843667922      -27.8686531905  TIP3      2876            0.0000000000
     22429      2977  TIP3      OH2           -16.3231851135       -5.3579487235      -26.3174021164  TIP3      2877            0.0000000000
     22430      2977  TIP3      H1            -17.0465398368       -5.6478483524      -25.7119402982  TIP3      2877            0.0000000000
     22431      2977  TIP3      H2            -16.5579755585       -4.4335378645      -26.5003115874  TIP3      2877            0.0000000000
     22432      2978  TIP3      OH2           -15.5839720708       -0.2213056740      -40.2811248987  TIP3      2878            0.0000000000
     22433      2978  TIP3      H1            -15.5836831296       -0.4465877368      -41.2254144262  TIP3      2878            0.0000000000
     22434      2978  TIP3      H2            -14.6471605810        0.0344172292      -40.1762425387  TIP3      2878            0.0000000000
     22435      2979  TIP3      OH2           -19.3388265988       -6.4654498550      -40.2854242238  TIP3      2879            0.0000000000
     22436      2979  TIP3      H1            -20.2835826872       -6.5473612551      -40.0682699786  TIP3      2879            0.0000000000
     22437      2979  TIP3      H2            -19.1552350307       -7.3476426029      -40.6466085022  TIP3      2879            0.0000000000
     22438      2980  TIP3      OH2           -23.7211110898       -4.2748144201      -29.5923430714  TIP3      2880            0.0000000000
     22439      2980  TIP3      H1            -24.5202668654       -4.1368990230      -29.0467572109  TIP3      2880            0.0000000000
     22440      2980  TIP3      H2            -23.6771917711       -3.4012798874      -30.0626045824  TIP3      2880            0.0000000000
     22441      2981  TIP3      OH2           -23.6173461126       -4.2383248732      -34.6230705512  TIP3      2881            0.0000000000
     22442      2981  TIP3      H1            -24.4891741859       -3.8685089898      -34.8611285516  TIP3      2881            0.0000000000
     22443      2981  TIP3      H2            -23.2725741389       -4.4436629292      -35.5116587604  TIP3      2881            0.0000000000
     22444      2982  TIP3      OH2           -18.3679864299       -3.2460961257      -35.8584210346  TIP3      2882            0.0000000000
     22445      2982  TIP3      H1            -18.7369636197       -2.4779540563      -36.3555382547  TIP3      2882            0.0000000000
     22446      2982  TIP3      H2            -17.7477228878       -3.5905671740      -36.5199925719  TIP3      2882            0.0000000000
     22447      2983  TIP3      OH2           -19.7070229700       -3.1302750656      -24.3737458562  TIP3      2883            0.0000000000
     22448      2983  TIP3      H1            -20.0334353858       -3.9904529659      -24.0506335827  TIP3      2883            0.0000000000
     22449      2983  TIP3      H2            -19.0042074235       -2.8982014125      -23.7441255026  TIP3      2883            0.0000000000
     22450      2984  TIP3      OH2           -17.2625272998       -3.8983756934      -32.9494236814  TIP3      2884            0.0000000000
     22451      2984  TIP3      H1            -17.3860326413       -3.0527719309      -33.4203789385  TIP3      2884            0.0000000000
     22452      2984  TIP3      H2            -17.4813993428       -4.5313661850      -33.6487895352  TIP3      2884            0.0000000000
     22453      2985  TIP3      OH2           -26.3903620285       -4.1356452077      -28.3302434765  TIP3      2885            0.0000000000
     22454      2985  TIP3      H1            -26.2037965297       -3.6772793746      -27.4936665181  TIP3      2885            0.0000000000
     22455      2985  TIP3      H2            -26.5427373069       -5.0365552981      -27.9881422321  TIP3      2885            0.0000000000
     22456      2986  TIP3      OH2           -23.3296876075       -6.5384365695      -41.2462441327  TIP3      2886            0.0000000000
     22457      2986  TIP3      H1            -23.5684991636       -6.9755413013      -40.4042267020  TIP3      2886            0.0000000000
     22458      2986  TIP3      H2            -23.6226000643       -5.6261325198      -41.1003524425  TIP3      2886            0.0000000000
     22459      2987  TIP3      OH2           -28.7403055395       -6.6856467667      -34.1236569393  TIP3      2887            0.0000000000
     22460      2987  TIP3      H1            -28.4164657427       -6.9299711474      -33.2384769814  TIP3      2887            0.0000000000
     22461      2987  TIP3      H2            -28.4499881370       -7.4282951616      -34.6719380251  TIP3      2887            0.0000000000
     22462      2988  TIP3      OH2           -28.2174355028       -5.6077157625      -38.2257940092  TIP3      2888            0.0000000000
     22463      2988  TIP3      H1            -27.6965877426       -5.2338291346      -38.9663091722  TIP3      2888            0.0000000000
     22464      2988  TIP3      H2            -29.0969941580       -5.2959517611      -38.4720429158  TIP3      2888            0.0000000000
     22465      2989  TIP3      OH2           -18.2250640843       -2.3746700963      -28.6336333265  TIP3      2889            0.0000000000
     22466      2989  TIP3      H1            -17.5654626772       -2.9619464307      -29.0668352639  TIP3      2889            0.0000000000
     22467      2989  TIP3      H2            -18.7209440535       -2.9891168138      -28.0419156735  TIP3      2889            0.0000000000
     22468      2990  TIP3      OH2           -21.0056665072       -6.5934254628      -33.5624125730  TIP3      2890            0.0000000000
     22469      2990  TIP3      H1            -21.8749232300       -6.4919116301      -33.1413010467  TIP3      2890            0.0000000000
     22470      2990  TIP3      H2            -20.4962230994       -7.1193202111      -32.9106001729  TIP3      2890            0.0000000000
     22471      2991  TIP3      OH2           -26.4321926455       -4.8467459545      -34.9706414366  TIP3      2891            0.0000000000
     22472      2991  TIP3      H1            -27.2404521666       -4.6801405398      -35.4881487892  TIP3      2891            0.0000000000
     22473      2991  TIP3      H2            -26.0312484739       -5.5820327134      -35.4515746195  TIP3      2891            0.0000000000
     22474      2992  TIP3      OH2           -23.1377892931       -4.6784764701      -37.2777168492  TIP3      2892            0.0000000000
     22475      2992  TIP3      H1            -22.1682127910       -4.6770624321      -37.1116452398  TIP3      2892            0.0000000000
     22476      2992  TIP3      H2            -23.2501752649       -3.9417334922      -37.8931068052  TIP3      2892            0.0000000000
     22477      2993  TIP3      OH2           -16.8806755287       -7.2288455687      -30.7076670051  TIP3      2893            0.0000000000
     22478      2993  TIP3      H1            -17.7091619103       -7.2869747011      -30.1969677023  TIP3      2893            0.0000000000
     22479      2993  TIP3      H2            -17.0838203881       -7.7635085520      -31.4870562614  TIP3      2893            0.0000000000
     22480      2994  TIP3      OH2           -24.3753686170       -2.7273198545      -40.1712793988  TIP3      2894            0.0000000000
     22481      2994  TIP3      H1            -25.1526513430       -3.0104144542      -40.6887465571  TIP3      2894            0.0000000000
     22482      2994  TIP3      H2            -23.6448569418       -3.0341197593      -40.7290717729  TIP3      2894            0.0000000000
     22483      2995  TIP3      OH2           -14.1154613549        8.4528162306      -24.1250566123  TIP3      2895            0.0000000000
     22484      2995  TIP3      H1            -13.9114751047        9.1030927903      -24.8150020830  TIP3      2895            0.0000000000
     22485      2995  TIP3      H2            -13.3724761600        8.6160596707      -23.5318733814  TIP3      2895            0.0000000000
     22486      2996  TIP3      OH2           -26.1992413771        0.8133702493      -24.9423489177  TIP3      2896            0.0000000000
     22487      2996  TIP3      H1            -25.5184374538        0.6779802877      -24.2367436076  TIP3      2896            0.0000000000
     22488      2996  TIP3      H2            -27.0176524270        0.7895299179      -24.3916941055  TIP3      2896            0.0000000000
     22489      2997  TIP3      OH2           -20.4720296951       -3.3729754143      -32.0905856453  TIP3      2897            0.0000000000
     22490      2997  TIP3      H1            -19.5539267637       -3.5166353217      -32.3825230747  TIP3      2897            0.0000000000
     22491      2997  TIP3      H2            -20.5191876461       -3.9959505520      -31.3678769060  TIP3      2897            0.0000000000
     22492      2998  TIP3      OH2           -24.8274076710       -7.9199777988      -35.6313249272  TIP3      2898            0.0000000000
     22493      2998  TIP3      H1            -25.3894746965       -8.6054272008      -35.2083669697  TIP3      2898            0.0000000000
     22494      2998  TIP3      H2            -24.4446759735       -8.4027794451      -36.3770607749  TIP3      2898            0.0000000000
     22495      2999  TIP3      OH2           -21.4135403254       -5.6250736105      -29.5930551446  TIP3      2899            0.0000000000
     22496      2999  TIP3      H1            -22.2235923700       -5.0898753322      -29.7172433800  TIP3      2899            0.0000000000
     22497      2999  TIP3      H2            -20.8268911385       -5.0065443481      -29.1474974632  TIP3      2899            0.0000000000
     22498      3000  TIP3      OH2           -20.9277047399        0.9005229701      -37.4801879120  TIP3      2900            0.0000000000
     22499      3000  TIP3      H1            -21.6669095026        0.3423128132      -37.8064515244  TIP3      2900            0.0000000000
     22500      3000  TIP3      H2            -21.3033976249        1.2083286078      -36.6220297935  TIP3      2900            0.0000000000
     22501      3001  TIP3      OH2           -13.3116678153        0.5680579826      -28.9088886819  TIP3      2901            0.0000000000
     22502      3001  TIP3      H1            -12.8983308690        1.2114363108      -29.5380588148  TIP3      2901            0.0000000000
     22503      3001  TIP3      H2            -14.1139609976        0.3569871432      -29.4135460045  TIP3      2901            0.0000000000
     22504      3002  TIP3      OH2           -16.6676678369       -6.0417917954      -39.9420610366  TIP3      2902            0.0000000000
     22505      3002  TIP3      H1            -17.6353580082       -6.1831206495      -39.8833239826  TIP3      2902            0.0000000000
     22506      3002  TIP3      H2            -16.5793890493       -5.2632870266      -39.3434217562  TIP3      2902            0.0000000000
     22507      3003  TIP3      OH2           -19.7209953562        1.4284437539      -26.8446717900  TIP3      2903            0.0000000000
     22508      3003  TIP3      H1            -19.7188132211        1.0783967434      -25.9454816431  TIP3      2903            0.0000000000
     22509      3003  TIP3      H2            -20.1864805388        2.2711268367      -26.7238952733  TIP3      2903            0.0000000000
     22510      3004  TIP3      OH2           -16.3620793814       -4.1488514916      -38.1170184916  TIP3      2904            0.0000000000
     22511      3004  TIP3      H1            -15.7649749989       -4.4338131079      -37.3980419126  TIP3      2904            0.0000000000
     22512      3004  TIP3      H2            -16.2163745121       -3.1830543824      -38.1045325562  TIP3      2904            0.0000000000
     22513      3005  TIP3      OH2           -25.4358821359        0.2899313538      -32.0262354114  TIP3      2905            0.0000000000
     22514      3005  TIP3      H1            -25.1696351600       -0.0221725808      -32.9226426645  TIP3      2905            0.0000000000
     22515      3005  TIP3      H2            -25.5651880710       -0.5576714227      -31.5566407146  TIP3      2905            0.0000000000
     22516      3006  TIP3      OH2           -18.8108327130        2.2610974117      -38.3402602823  TIP3      2906            0.0000000000
     22517      3006  TIP3      H1            -19.2426274098        3.1456871835      -38.2916489261  TIP3      2906            0.0000000000
     22518      3006  TIP3      H2            -19.5744920053        1.6500430090      -38.2450218649  TIP3      2906            0.0000000000
     22519      3007  TIP3      OH2           -28.3625106236       -1.6959670220      -26.8875435537  TIP3      2907            0.0000000000
     22520      3007  TIP3      H1            -28.3842395096       -1.7897075037      -25.9205019540  TIP3      2907            0.0000000000
     22521      3007  TIP3      H2            -29.2865841915       -1.9204841951      -27.1426975753  TIP3      2907            0.0000000000
     22522      3008  TIP3      OH2           -22.0476525713       -1.5228762114      -25.1501180504  TIP3      2908            0.0000000000
     22523      3008  TIP3      H1            -21.8445956393       -1.5995157109      -26.1129553999  TIP3      2908            0.0000000000
     22524      3008  TIP3      H2            -21.2407397537       -1.8881575906      -24.7456527836  TIP3      2908            0.0000000000
     22525      3009  TIP3      OH2           -16.7904501203        3.6160323793      -26.4562445295  TIP3      2909            0.0000000000
     22526      3009  TIP3      H1            -17.6314494942        3.7855495369      -26.8943701929  TIP3      2909            0.0000000000
     22527      3009  TIP3      H2            -16.9908405639        4.0021335173      -25.5754707854  TIP3      2909            0.0000000000
     22528      3010  TIP3      OH2           -11.7833706912       -3.9406433905      -37.6580558215  TIP3      2910            0.0000000000
     22529      3010  TIP3      H1            -11.9786055231       -4.1521172482      -38.5909417398  TIP3      2910            0.0000000000
     22530      3010  TIP3      H2            -11.3615039349       -3.0704771254      -37.7552806387  TIP3      2910            0.0000000000
     22531      3011  TIP3      OH2           -11.2070347358        1.4313181765      -25.6275965171  TIP3      2911            0.0000000000
     22532      3011  TIP3      H1            -11.9887146752        1.9030542018      -25.9908749331  TIP3      2911            0.0000000000
     22533      3011  TIP3      H2            -10.6151334353        1.4131867695      -26.4153942341  TIP3      2911            0.0000000000
     22534      3012  TIP3      OH2           -13.3869599433        4.6983917159      -37.6668090479  TIP3      2912            0.0000000000
     22535      3012  TIP3      H1            -14.1080996812        4.0760204794      -37.5025496994  TIP3      2912            0.0000000000
     22536      3012  TIP3      H2            -12.9698634463        4.3772860232      -38.4738420864  TIP3      2912            0.0000000000
     22537      3013  TIP3      OH2           -15.8010705565       -0.6168463764      -30.9751959063  TIP3      2913            0.0000000000
     22538      3013  TIP3      H1            -16.7303001199       -0.8155769544      -31.2019526844  TIP3      2913            0.0000000000
     22539      3013  TIP3      H2            -15.3200016652       -1.3187771305      -31.4671433786  TIP3      2913            0.0000000000
     22540      3014  TIP3      OH2           -23.5379332248        3.8065150565      -34.7226383240  TIP3      2914            0.0000000000
     22541      3014  TIP3      H1            -23.3718126596        4.6654548837      -35.1339651533  TIP3      2914            0.0000000000
     22542      3014  TIP3      H2            -24.5079967714        3.7566352956      -34.7944380237  TIP3      2914            0.0000000000
     22543      3015  TIP3      OH2           -27.5510674348       -1.8338432883      -40.1772504263  TIP3      2915            0.0000000000
     22544      3015  TIP3      H1            -27.0362495710       -1.1401254233      -39.7363779217  TIP3      2915            0.0000000000
     22545      3015  TIP3      H2            -28.4112475873       -1.3737041337      -40.1793911676  TIP3      2915            0.0000000000
     22546      3016  TIP3      OH2           -22.2485215284        1.4220505458      -35.1128269334  TIP3      2916            0.0000000000
     22547      3016  TIP3      H1            -22.5000736094        2.3635831661      -34.9987813142  TIP3      2916            0.0000000000
     22548      3016  TIP3      H2            -22.8853270933        0.9722451774      -34.5310344037  TIP3      2916            0.0000000000
     22549      3017  TIP3      OH2           -21.5791760013        5.6580648181      -28.4335844472  TIP3      2917            0.0000000000
     22550      3017  TIP3      H1            -20.8779855996        6.2385177777      -28.7858306853  TIP3      2917            0.0000000000
     22551      3017  TIP3      H2            -21.0650486876        5.1322927070      -27.7887220327  TIP3      2917            0.0000000000
     22552      3018  TIP3      OH2           -22.9483669316        6.6808291103      -35.9688864487  TIP3      2918            0.0000000000
     22553      3018  TIP3      H1            -23.8785527878        6.5484709241      -35.7095887574  TIP3      2918            0.0000000000
     22554      3018  TIP3      H2            -22.7722879150        7.5307889602      -35.5141121356  TIP3      2918            0.0000000000
     22555      3019  TIP3      OH2           -18.3426691158        1.4617850042      -29.1132433060  TIP3      2919            0.0000000000
     22556      3019  TIP3      H1            -18.6812287164        1.2996719789      -28.1939893720  TIP3      2919            0.0000000000
     22557      3019  TIP3      H2            -17.7414367421        0.7075679767      -29.2323951236  TIP3      2919            0.0000000000
     22558      3020  TIP3      OH2           -15.7758237059        2.8563428876      -39.5380206460  TIP3      2920            0.0000000000
     22559      3020  TIP3      H1            -15.7283337022        2.4359265977      -38.6564385627  TIP3      2920            0.0000000000
     22560      3020  TIP3      H2            -16.5494820908        2.3680315610      -39.8601523895  TIP3      2920            0.0000000000
     22561      3021  TIP3      OH2           -14.9830201456        5.9133875992      -26.9110680280  TIP3      2921            0.0000000000
     22562      3021  TIP3      H1            -15.7379503675        5.3128365371      -26.7448508091  TIP3      2921            0.0000000000
     22563      3021  TIP3      H2            -15.2911919427        6.4371283197      -27.6773498221  TIP3      2921            0.0000000000
     22564      3022  TIP3      OH2           -11.3834479916        6.9451244389      -39.7585270407  TIP3      2922            0.0000000000
     22565      3022  TIP3      H1            -11.2376543185        7.2321123382      -40.6883240311  TIP3      2922            0.0000000000
     22566      3022  TIP3      H2            -11.7297591228        7.7731259352      -39.3467364721  TIP3      2922            0.0000000000
     22567      3023  TIP3      OH2           -26.6132406412       -6.4831201314      -26.7074396046  TIP3      2923            0.0000000000
     22568      3023  TIP3      H1            -27.5516257086       -6.2732158420      -26.5326109444  TIP3      2923            0.0000000000
     22569      3023  TIP3      H2            -26.5402814863       -7.3772745437      -26.3155835510  TIP3      2923            0.0000000000
     22570      3024  TIP3      OH2           -14.9471140902        1.3599466261      -37.3460132945  TIP3      2924            0.0000000000
     22571      3024  TIP3      H1            -15.0488563867        0.5628639562      -36.7666673353  TIP3      2924            0.0000000000
     22572      3024  TIP3      H2            -13.9990231940        1.2883663565      -37.5910290815  TIP3      2924            0.0000000000
     22573      3025  TIP3      OH2           -27.2400294965        5.3068922865      -28.8193322813  TIP3      2925            0.0000000000
     22574      3025  TIP3      H1            -26.9763950983        4.4271550858      -28.5322660042  TIP3      2925            0.0000000000
     22575      3025  TIP3      H2            -26.6641926902        5.9041625405      -28.2983361581  TIP3      2925            0.0000000000
     22576      3026  TIP3      OH2           -22.7740948409        3.3771337477      -39.2853438920  TIP3      2926            0.0000000000
     22577      3026  TIP3      H1            -22.3740757318        2.7882867061      -38.6246115982  TIP3      2926            0.0000000000
     22578      3026  TIP3      H2            -22.7026020367        4.2636997336      -38.8505677681  TIP3      2926            0.0000000000
     22579      3027  TIP3      OH2           -26.5187524614        0.1449006514      -38.4117950688  TIP3      2927            0.0000000000
     22580      3027  TIP3      H1            -27.1219358239        0.7749939133      -37.9575756855  TIP3      2927            0.0000000000
     22581      3027  TIP3      H2            -25.9220336818        0.7379790333      -38.8819628404  TIP3      2927            0.0000000000
     22582      3028  TIP3      OH2           -18.3861844188       -6.6502133285      -27.7361781542  TIP3      2928            0.0000000000
     22583      3028  TIP3      H1            -17.4499689624       -6.5831409416      -27.5030203703  TIP3      2928            0.0000000000
     22584      3028  TIP3      H2            -18.5662855089       -7.6039524830      -27.6773886353  TIP3      2928            0.0000000000
     22585      3029  TIP3      OH2           -17.6246384177       -7.4493477594      -37.1710721297  TIP3      2929            0.0000000000
     22586      3029  TIP3      H1            -17.1587436353       -6.9716096804      -37.8645870743  TIP3      2929            0.0000000000
     22587      3029  TIP3      H2            -17.1923445158       -7.1261580078      -36.3513910104  TIP3      2929            0.0000000000
     22588      3030  TIP3      OH2           -19.7048732730        4.9688450366      -38.3506557453  TIP3      2930            0.0000000000
     22589      3030  TIP3      H1            -20.4636999505        5.5616266412      -38.2032457362  TIP3      2930            0.0000000000
     22590      3030  TIP3      H2            -19.2750386134        5.3782242708      -39.1239960721  TIP3      2930            0.0000000000
     22591      3031  TIP3      OH2           -20.7840075675       -5.1788532866      -35.9921612403  TIP3      2931            0.0000000000
     22592      3031  TIP3      H1            -20.1723771369       -4.4698356918      -35.7073677071  TIP3      2931            0.0000000000
     22593      3031  TIP3      H2            -20.9228447722       -5.6996535255      -35.1707224011  TIP3      2931            0.0000000000
     22594      3032  TIP3      OH2           -19.3820519770       -4.1414322834      -26.8562057376  TIP3      2932            0.0000000000
     22595      3032  TIP3      H1            -19.4043704323       -3.8163470991      -25.9269309240  TIP3      2932            0.0000000000
     22596      3032  TIP3      H2            -19.1820158319       -5.0975650681      -26.7949250729  TIP3      2932            0.0000000000
     22597      3033  TIP3      OH2           -19.6647566626       -8.5743157259      -35.8475087716  TIP3      2933            0.0000000000
     22598      3033  TIP3      H1            -19.8673034712       -7.8505796580      -35.2355054151  TIP3      2933            0.0000000000
     22599      3033  TIP3      H2            -18.8864637275       -8.1864074899      -36.3270350503  TIP3      2933            0.0000000000
     22600      3034  TIP3      OH2           -22.5115462687        5.9356212771      -38.5046448758  TIP3      2934            0.0000000000
     22601      3034  TIP3      H1            -22.2791384511        6.7615476377      -38.9929201533  TIP3      2934            0.0000000000
     22602      3034  TIP3      H2            -22.7939074620        6.3227842652      -37.6431692825  TIP3      2934            0.0000000000
     22603      3035  TIP3      OH2           -23.8485288793       -7.1497074235      -38.5106801933  TIP3      2935            0.0000000000
     22604      3035  TIP3      H1            -23.7790473240       -6.3127475799      -38.0115292340  TIP3      2935            0.0000000000
     22605      3035  TIP3      H2            -22.9359847685       -7.4806724281      -38.3734219266  TIP3      2935            0.0000000000
     22606      3036  TIP3      OH2           -13.8649982083       -6.5734618957      -26.0701363608  TIP3      2936            0.0000000000
     22607      3036  TIP3      H1            -14.7798595940       -6.3381616081      -26.3515807644  TIP3      2936            0.0000000000
     22608      3036  TIP3      H2            -13.3440528861       -6.4463018068      -26.8842567244  TIP3      2936            0.0000000000
     22609      3037  TIP3      OH2           -14.7591301439       -2.8394499658      -32.4699980659  TIP3      2937            0.0000000000
     22610      3037  TIP3      H1            -15.4940044290       -3.4565540187      -32.3210592243  TIP3      2937            0.0000000000
     22611      3037  TIP3      H2            -14.0818618535       -3.1913496507      -31.8413837569  TIP3      2937            0.0000000000
     22612      3038  TIP3      OH2           -25.6099028070        3.3249186760      -40.0791729903  TIP3      2938            0.0000000000
     22613      3038  TIP3      H1            -24.8197478169        3.6062025786      -39.5827840132  TIP3      2938            0.0000000000
     22614      3038  TIP3      H2            -25.2307399495        2.6078990979      -40.6159922047  TIP3      2938            0.0000000000
     22615      3039  TIP3      OH2           -27.1152395665       -4.3689069059      -40.4209273438  TIP3      2939            0.0000000000
     22616      3039  TIP3      H1            -27.1114832697       -3.4126469080      -40.1789782339  TIP3      2939            0.0000000000
     22617      3039  TIP3      H2            -27.9217961738       -4.3653692690      -40.9475652381  TIP3      2939            0.0000000000
     22618      3040  TIP3      OH2           -13.8559784679        6.6641055558      -30.6825261256  TIP3      2940            0.0000000000
     22619      3040  TIP3      H1            -13.7989903912        7.3795688774      -31.3554528033  TIP3      2940            0.0000000000
     22620      3040  TIP3      H2            -12.9118907662        6.4417510476      -30.6165801091  TIP3      2940            0.0000000000
     22621      3041  TIP3      OH2           -26.3368757939       -9.4585233071      -31.8310509745  TIP3      2941            0.0000000000
     22622      3041  TIP3      H1            -26.3681549234       -9.5447997028      -32.8093883293  TIP3      2941            0.0000000000
     22623      3041  TIP3      H2            -26.7695005287      -10.3185342864      -31.6189179774  TIP3      2941            0.0000000000
     22624      3042  TIP3      OH2           -27.4134476690        4.4455509044      -35.6340132754  TIP3      2942            0.0000000000
     22625      3042  TIP3      H1            -28.3786214241        4.4738834617      -35.5094407672  TIP3      2942            0.0000000000
     22626      3042  TIP3      H2            -27.3711328382        4.8443267416      -36.5238950971  TIP3      2942            0.0000000000
     22627      3043  TIP3      OH2           -28.0619694596        7.2425162333      -24.2990232699  TIP3      2943            0.0000000000
     22628      3043  TIP3      H1            -27.5533219041        7.3185340955      -23.4739647166  TIP3      2943            0.0000000000
     22629      3043  TIP3      H2            -28.1488110318        6.2827939466      -24.3885199170  TIP3      2943            0.0000000000
     22630      3044  TIP3      OH2           -23.6576059746        5.8639571209      -22.7556009486  TIP3      2944            0.0000000000
     22631      3044  TIP3      H1            -22.7296503414        5.6114040791      -22.6744754449  TIP3      2944            0.0000000000
     22632      3044  TIP3      H2            -23.8468465919        5.6103682122      -23.6848418753  TIP3      2944            0.0000000000
     22633      3045  TIP3      OH2           -19.8242366530        5.7452267929      -40.9693676541  TIP3      2945            0.0000000000
     22634      3045  TIP3      H1            -20.6341832878        5.2405508866      -40.7962239009  TIP3      2945            0.0000000000
     22635      3045  TIP3      H2            -19.6214003662        5.5999329499      -41.9029564129  TIP3      2945            0.0000000000
     22636      3046  TIP3      OH2           -17.1790644005        4.7072542081      -24.0153880943  TIP3      2946            0.0000000000
     22637      3046  TIP3      H1            -17.2791940287        3.9343105866      -23.4218600706  TIP3      2946            0.0000000000
     22638      3046  TIP3      H2            -16.3272186572        5.0423389959      -23.6456568057  TIP3      2946            0.0000000000
     22639      3047  TIP3      OH2           -14.4783087158        5.0092201347      -41.2410793490  TIP3      2947            0.0000000000
     22640      3047  TIP3      H1            -14.8554891199        4.4704192167      -40.5188982600  TIP3      2947            0.0000000000
     22641      3047  TIP3      H2            -13.5265296893        4.8056754189      -41.1179511139  TIP3      2947            0.0000000000
     22642      3048  TIP3      OH2           -28.2821744943        0.9653638437      -23.2839691500  TIP3      2948            0.0000000000
     22643      3048  TIP3      H1            -27.9780069048        0.8945400589      -22.3619412605  TIP3      2948            0.0000000000
     22644      3048  TIP3      H2            -29.1950439885        0.6057554939      -23.2469875358  TIP3      2948            0.0000000000
     22645      3049  TIP3      OH2           -23.7274304783        1.1971208160      -41.1383397449  TIP3      2949            0.0000000000
     22646      3049  TIP3      H1            -23.0668857550        1.0371548126      -40.4451128798  TIP3      2949            0.0000000000
     22647      3049  TIP3      H2            -23.4350121417        0.5525997605      -41.8104884250  TIP3      2949            0.0000000000
     22648      3050  TIP3      OH2           -21.6202158315        1.0047758098      -24.2019274571  TIP3      2950            0.0000000000
     22649      3050  TIP3      H1            -21.9611643223        1.5643919309      -24.9362335583  TIP3      2950            0.0000000000
     22650      3050  TIP3      H2            -21.7539410278        0.0952201474      -24.5619881299  TIP3      2950            0.0000000000
     22651      3051  TIP3      OH2           -16.0035436786        0.8015825634      -26.5262247192  TIP3      2951            0.0000000000
     22652      3051  TIP3      H1            -15.1222251263        1.2327773375      -26.4407195569  TIP3      2951            0.0000000000
     22653      3051  TIP3      H2            -16.5769724698        1.5901087545      -26.4507674165  TIP3      2951            0.0000000000
     22654      3052  TIP3      OH2           -26.9081017012       -1.9893869544      -24.2798325299  TIP3      2952            0.0000000000
     22655      3052  TIP3      H1            -27.2524958492       -2.6248073228      -23.6127222195  TIP3      2952            0.0000000000
     22656      3052  TIP3      H2            -27.5052638302       -1.2411019470      -24.1041408864  TIP3      2952            0.0000000000
     22657      3053  TIP3      OH2           -22.7817146038       -0.4966955195      -38.8746988219  TIP3      2953            0.0000000000
     22658      3053  TIP3      H1            -23.4868850782       -0.9955561162      -38.4278299463  TIP3      2953            0.0000000000
     22659      3053  TIP3      H2            -22.4329878780       -1.1524866310      -39.5108161474  TIP3      2953            0.0000000000
     22660      3054  TIP3      OH2           -24.0644730074       -2.7048756819      -27.2509075373  TIP3      2954            0.0000000000
     22661      3054  TIP3      H1            -24.5195923513       -1.8931649779      -27.5573098364  TIP3      2954            0.0000000000
     22662      3054  TIP3      H2            -23.2071205258       -2.5707269851      -27.6911101686  TIP3      2954            0.0000000000
     22663      3055  TIP3      OH2           -21.5548919718       -2.1793639490      -40.8970715079  TIP3      2955            0.0000000000
     22664      3055  TIP3      H1            -21.5686560266       -2.6371318069      -41.7464012231  TIP3      2955            0.0000000000
     22665      3055  TIP3      H2            -20.5846052880       -2.1232582472      -40.7112101618  TIP3      2955            0.0000000000
     22666      3056  TIP3      OH2           -18.0909525159       -0.2726091580      -23.0173118349  TIP3      2956            0.0000000000
     22667      3056  TIP3      H1            -17.1921723918       -0.5386286260      -23.2880231127  TIP3      2956            0.0000000000
     22668      3056  TIP3      H2            -18.2081014493       -0.9396592977      -22.2998902476  TIP3      2956            0.0000000000
     22669      3057  TIP3      OH2           -13.0655550913        0.0705468755      -41.5048007289  TIP3      2957            0.0000000000
     22670      3057  TIP3      H1            -13.3219440274        0.0196863600      -42.4435159656  TIP3      2957            0.0000000000
     22671      3057  TIP3      H2            -13.0977357650        1.0259323044      -41.4010271918  TIP3      2957            0.0000000000
     22672      3058  TIP3      OH2           -22.5883302236       -5.3867835927      -25.8264446996  TIP3      2958            0.0000000000
     22673      3058  TIP3      H1            -22.5812792220       -6.2187924140      -26.3735679459  TIP3      2958            0.0000000000
     22674      3058  TIP3      H2            -22.5337566683       -4.7075460635      -26.5090685227  TIP3      2958            0.0000000000
     22675      3059  TIP3      OH2           -22.5052853583       -7.1811906259      -27.8016910282  TIP3      2959            0.0000000000
     22676      3059  TIP3      H1            -21.9471018864       -6.6982747783      -28.4544917719  TIP3      2959            0.0000000000
     22677      3059  TIP3      H2            -23.3832142113       -7.0810031518      -28.2065791614  TIP3      2959            0.0000000000
     22678      3060  TIP3      OH2           -21.4202129870       -1.4868332340      -27.7429411527  TIP3      2960            0.0000000000
     22679      3060  TIP3      H1            -20.5535237089       -1.2897662998      -28.1222351306  TIP3      2960            0.0000000000
     22680      3060  TIP3      H2            -21.9771120029       -0.7795236590      -28.1449044550  TIP3      2960            0.0000000000
     22681      3061  TIP3      OH2           -15.4505217211       -1.0118917286      -24.4708248773  TIP3      2961            0.0000000000
     22682      3061  TIP3      H1            -15.7423835111       -0.4058077490      -25.1807771722  TIP3      2961            0.0000000000
     22683      3061  TIP3      H2            -14.4738737580       -0.9562217782      -24.5578407942  TIP3      2961            0.0000000000
     22684      3062  TIP3      OH2           -24.0800807033       -4.6439860524      -23.6198160311  TIP3      2962            0.0000000000
     22685      3062  TIP3      H1            -25.0364245221       -4.8634661769      -23.6890091444  TIP3      2962            0.0000000000
     22686      3062  TIP3      H2            -23.6964028084       -5.1031269574      -24.4103707452  TIP3      2962            0.0000000000
     22687      3063  TIP3      OH2           -21.6815712692       -9.7104404126      -28.0974060460  TIP3      2963            0.0000000000
     22688      3063  TIP3      H1            -22.0878119073       -8.8206274164      -27.9936678717  TIP3      2963            0.0000000000
     22689      3063  TIP3      H2            -22.4780900316      -10.2560755870      -28.2170470346  TIP3      2963            0.0000000000
     22690      3064  TIP3      OH2           -20.8117839716       -5.6945912717      -23.7229975970  TIP3      2964            0.0000000000
     22691      3064  TIP3      H1            -21.4696490727       -5.9097113172      -23.0358092484  TIP3      2964            0.0000000000
     22692      3064  TIP3      H2            -21.3953747610       -5.7017000418      -24.5188486617  TIP3      2964            0.0000000000
     22693      3065  TIP3      OH2           -18.2995435347       -6.1754665432      -24.6280785616  TIP3      2965            0.0000000000
     22694      3065  TIP3      H1            -19.2034735020       -5.8736498645      -24.4039097917  TIP3      2965            0.0000000000
     22695      3065  TIP3      H2            -18.3100668595       -7.0769283399      -24.2895524450  TIP3      2965            0.0000000000
     22696      3066  TIP3      OH2           -26.3688876274       -6.3013801444      -23.4660153402  TIP3      2966            0.0000000000
     22697      3066  TIP3      H1            -26.2201679773       -7.0934487989      -24.0036572342  TIP3      2966            0.0000000000
     22698      3066  TIP3      H2            -26.7417805192       -6.6573805028      -22.6485651850  TIP3      2966            0.0000000000
     22699      3067  TIP3      OH2           -21.9728312432       -9.9497010256      -25.2860446639  TIP3      2967            0.0000000000
     22700      3067  TIP3      H1            -21.3464629399      -10.6498370927      -25.0386837132  TIP3      2967            0.0000000000
     22701      3067  TIP3      H2            -21.8008723480       -9.8821696156      -26.2382709320  TIP3      2967            0.0000000000
     22702      3068  TIP3      OH2           -21.8706231238        8.0169927986      -40.0238684734  TIP3      2968            0.0000000000
     22703      3068  TIP3      H1            -20.9080856420        8.1370001190      -39.9161493175  TIP3      2968            0.0000000000
     22704      3068  TIP3      H2            -21.9445108998        8.1899575232      -40.9854479739  TIP3      2968            0.0000000000
     22705      3069  TIP3      OH2           -28.2943969670        3.0852099748      -40.4125106469  TIP3      2969            0.0000000000
     22706      3069  TIP3      H1            -27.3967473695        3.4316915606      -40.1886432366  TIP3      2969            0.0000000000
     22707      3069  TIP3      H2            -28.2250756063        3.0702809704      -41.3780327038  TIP3      2969            0.0000000000
     22708      3070  TIP3      OH2            29.0995528770        7.8325782691      -35.8072615705  TIP3      2970            0.0000000000
     22709      3070  TIP3      H1             28.2504874301        8.0729465845      -35.3816178803  TIP3      2970            0.0000000000
     22710      3070  TIP3      H2             29.6666519915        7.7941867715      -35.0209971511  TIP3      2970            0.0000000000
     22711      3071  TIP3      OH2           -28.2844162412        6.5458594814      -33.5876474264  TIP3      2971            0.0000000000
     22712      3071  TIP3      H1            -28.9826407825        5.8693751027      -33.6349843880  TIP3      2971            0.0000000000
     22713      3071  TIP3      H2            -27.8501157023        6.3097742095      -32.7483764608  TIP3      2971            0.0000000000
     22714      3072  TIP3      OH2           -11.1230969762        6.9068064691      -30.6271608303  TIP3      2972            0.0000000000
     22715      3072  TIP3      H1            -10.9717270810        7.0576979151      -29.6858652214  TIP3      2972            0.0000000000
     22716      3072  TIP3      H2            -10.5321396305        7.5572239071      -31.0344659376  TIP3      2972            0.0000000000
     22717      3073  TIP3      OH2           -11.6912670475        6.5536097280      -27.6209100235  TIP3      2973            0.0000000000
     22718      3073  TIP3      H1            -12.1387495308        5.8992102097      -28.2020209003  TIP3      2973            0.0000000000
     22719      3073  TIP3      H2            -11.3282542761        5.9482263559      -26.9383860720  TIP3      2973            0.0000000000
     22720      3074  TIP3      OH2           -12.8250644168        2.4205584932      -22.8305087033  TIP3      2974            0.0000000000
     22721      3074  TIP3      H1            -13.4752808335        3.0863252448      -23.0789877821  TIP3      2974            0.0000000000
     22722      3074  TIP3      H2            -12.2304912124        2.9082101495      -22.2083925648  TIP3      2974            0.0000000000
     22723      3075  TIP3      OH2           -12.2562855219        0.7092511982      -37.7460515601  TIP3      2975            0.0000000000
     22724      3075  TIP3      H1            -11.3490463999        1.0323389378      -37.5465001791  TIP3      2975            0.0000000000
     22725      3075  TIP3      H2            -12.3483324366       -0.0033296615      -37.0774746992  TIP3      2975            0.0000000000
     22726      3076  TIP3      OH2           -11.5900737570       -1.1969243246      -35.6359088882  TIP3      2976            0.0000000000
     22727      3076  TIP3      H1            -12.3632938579       -1.6725595569      -35.2627597330  TIP3      2976            0.0000000000
     22728      3076  TIP3      H2            -11.0794899268       -1.0785466667      -34.8134419448  TIP3      2976            0.0000000000
     22729      3077  TIP3      OH2           -11.8430796968        1.6881233939      -30.7869847825  TIP3      2977            0.0000000000
     22730      3077  TIP3      H1            -11.2217415295        0.9938258120      -31.0755214969  TIP3      2977            0.0000000000
     22731      3077  TIP3      H2            -11.3213573992        2.4993596890      -30.9652603001  TIP3      2977            0.0000000000
     22732      3078  TIP3      OH2           -13.1477480504        4.3072781110      -28.4036454155  TIP3      2978            0.0000000000
     22733      3078  TIP3      H1            -13.7880252950        4.7700945583      -27.8182226272  TIP3      2978            0.0000000000
     22734      3078  TIP3      H2            -13.6782207401        4.0101705164      -29.1809619496  TIP3      2978            0.0000000000
     22735      3079  TIP3      OH2           -11.1200094973       -1.5044660525      -39.3665631657  TIP3      2979            0.0000000000
     22736      3079  TIP3      H1            -11.9916478693       -1.5563932595      -39.7949324891  TIP3      2979            0.0000000000
     22737      3079  TIP3      H2            -11.1832042937       -0.6500829775      -38.9125689800  TIP3      2979            0.0000000000
     22738      3080  TIP3      OH2           -12.3301652879       -4.1866026458      -40.8211688382  TIP3      2980            0.0000000000
     22739      3080  TIP3      H1            -12.5330837534       -3.7564156490      -41.6611420786  TIP3      2980            0.0000000000
     22740      3080  TIP3      H2            -12.4976958702       -5.1168933708      -41.0603059060  TIP3      2980            0.0000000000
     22741      3081  TIP3      OH2           -13.3361021474       -2.9549724060      -34.6946221205  TIP3      2981            0.0000000000
     22742      3081  TIP3      H1            -13.8784822619       -3.7174918345      -34.9518838040  TIP3      2981            0.0000000000
     22743      3081  TIP3      H2            -13.7069749132       -2.8061540740      -33.7951991117  TIP3      2981            0.0000000000
     22744      3082  TIP3      OH2           -28.6812481962       -0.7372107712      -30.2283001077  TIP3      2982            0.0000000000
     22745      3082  TIP3      H1            -28.6691636611       -0.7008445552      -31.2089398225  TIP3      2982            0.0000000000
     22746      3082  TIP3      H2            -27.7676087170       -1.0494505773      -30.0528995500  TIP3      2982            0.0000000000
     22747      3083  TIP3      OH2           -12.8193957996       -0.6555166682      -25.0506696486  TIP3      2983            0.0000000000
     22748      3083  TIP3      H1            -12.2515018043       -1.4464135840      -25.1464621682  TIP3      2983            0.0000000000
     22749      3083  TIP3      H2            -12.2040320746        0.0782951560      -25.2892820218  TIP3      2983            0.0000000000
     22750      3084  TIP3      OH2           -11.3537397935       -2.9418450564      -25.2669856906  TIP3      2984            0.0000000000
     22751      3084  TIP3      H1            -12.2576441075       -3.3310391966      -25.2949134436  TIP3      2984            0.0000000000
     22752      3084  TIP3      H2            -10.8833516172       -3.6176662124      -24.7367982372  TIP3      2984            0.0000000000
     22753      3085  TIP3      OH2           -13.5635846285       -6.6231475698      -41.5561711937  TIP3      2985            0.0000000000
     22754      3085  TIP3      H1            -13.0410737989       -7.1491303693      -40.9136581118  TIP3      2985            0.0000000000
     22755      3085  TIP3      H2            -14.4280090042       -6.5800403020      -41.1219822701  TIP3      2985            0.0000000000
     22756      3086  TIP3      OH2           -14.5993087146       -4.8431031849      -36.1998115817  TIP3      2986            0.0000000000
     22757      3086  TIP3      H1            -14.3064329138       -5.7833552560      -36.2016217843  TIP3      2986            0.0000000000
     22758      3086  TIP3      H2            -13.7988947650       -4.4469773684      -36.5925764128  TIP3      2986            0.0000000000
     22759      3087  TIP3      OH2           -12.9729608865       -4.2034603487      -30.9733910288  TIP3      2987            0.0000000000
     22760      3087  TIP3      H1            -11.9948925195       -4.2356079678      -30.8853580662  TIP3      2987            0.0000000000
     22761      3087  TIP3      H2            -13.1890307370       -4.1885153190      -30.0237553890  TIP3      2987            0.0000000000
     22762      3088  TIP3      OH2           -13.1568388080       -3.6322141265      -28.3639025217  TIP3      2988            0.0000000000
     22763      3088  TIP3      H1            -13.9597207539       -3.4084984845      -27.8589262743  TIP3      2988            0.0000000000
     22764      3088  TIP3      H2            -12.7415924225       -2.7560405872      -28.4922213081  TIP3      2988            0.0000000000
     22765      3089  TIP3      OH2           -28.8832411459       -5.3741631457      -24.8734708842  TIP3      2989            0.0000000000
     22766      3089  TIP3      H1            -27.9515532604       -5.2805237909      -24.5932698706  TIP3      2989            0.0000000000
     22767      3089  TIP3      H2            -29.3069678127       -5.2926094101      -24.0079195621  TIP3      2989            0.0000000000
     22768      3090  TIP3      OH2           -10.8155235668       -9.8008277199      -23.0569642112  TIP3      2990            0.0000000000
     22769      3090  TIP3      H1            -10.3485589294      -10.4062930939      -23.6518441582  TIP3      2990            0.0000000000
     22770      3090  TIP3      H2            -11.1154603555       -9.1051334449      -23.6634074105  TIP3      2990            0.0000000000
     22771      3091  TIP3      OH2           -13.7031193600       -7.5681135261      -36.0784953356  TIP3      2991            0.0000000000
     22772      3091  TIP3      H1            -13.2090237602       -7.9591757553      -35.3282128141  TIP3      2991            0.0000000000
     22773      3091  TIP3      H2            -14.0044271925       -8.3646979011      -36.5354902945  TIP3      2991            0.0000000000
     22774      3092  TIP3      OH2           -27.8210857752       -7.1836296411      -31.4831929022  TIP3      2992            0.0000000000
     22775      3092  TIP3      H1            -27.2740567476       -7.9972511223      -31.5171794205  TIP3      2992            0.0000000000
     22776      3092  TIP3      H2            -27.1313454465       -6.4975343207      -31.4743835228  TIP3      2992            0.0000000000
     22777      3093  TIP3      OH2           -29.1421013383       -3.7331879899      -30.6541768442  TIP3      2993            0.0000000000
     22778      3093  TIP3      H1            -28.3834202326       -4.2502641773      -30.9588479544  TIP3      2993            0.0000000000
     22779      3093  TIP3      H2            -28.6642242556       -3.1067872743      -30.0857957964  TIP3      2993            0.0000000000
     22780      3094  TIP3      OH2           -11.6113516185       -7.7316035995      -24.8302015996  TIP3      2994            0.0000000000
     22781      3094  TIP3      H1            -12.4705975893       -7.2629168070      -24.8854648279  TIP3      2994            0.0000000000
     22782      3094  TIP3      H2            -11.7813215443       -8.4147788758      -25.5122780302  TIP3      2994            0.0000000000
     22783      3095  TIP3      OH2           -11.6109071317       -7.4575668362      -39.9441782384  TIP3      2995            0.0000000000
     22784      3095  TIP3      H1            -11.2371962644       -7.4087072826      -40.8625463285  TIP3      2995            0.0000000000
     22785      3095  TIP3      H2            -10.8293666147       -7.1387016452      -39.4485244763  TIP3      2995            0.0000000000
     22786      3096  TIP3      OH2           -28.9664679905       -8.4235800486      -36.5750794802  TIP3      2996            0.0000000000
     22787      3096  TIP3      H1            -29.9514966570       -8.3707748943      -36.5041154649  TIP3      2996            0.0000000000
     22788      3096  TIP3      H2            -28.7540039992       -7.5909622382      -37.0180868052  TIP3      2996            0.0000000000
     22789      3097  TIP3      OH2           -14.4591253149        7.2613670055      -34.5484172335  TIP3      2997            0.0000000000
     22790      3097  TIP3      H1            -13.6533923715        7.1469586581      -35.0903071118  TIP3      2997            0.0000000000
     22791      3097  TIP3      H2            -14.1393645960        7.8001667005      -33.8039383677  TIP3      2997            0.0000000000
     22792      3098  TIP3      OH2            29.7540691824       -9.3592572339      -28.5766323061  TIP3      2998            0.0000000000
     22793      3098  TIP3      H1             28.8669291983       -9.3757123073      -28.1620742826  TIP3      2998            0.0000000000
     22794      3098  TIP3      H2             29.7054316810       -8.5562281737      -29.1031211734  TIP3      2998            0.0000000000
     22795      3099  TIP3      OH2           -26.7819772517        3.8881986345      -24.2104441862  TIP3      2999            0.0000000000
     22796      3099  TIP3      H1            -27.4235166080        3.2523611219      -24.5751343982  TIP3      2999            0.0000000000
     22797      3099  TIP3      H2            -26.4791102673        3.3948699831      -23.4278060119  TIP3      2999            0.0000000000
     22798      3100  TIP3      OH2           -24.3010022180        5.5613559794      -27.8387853574  TIP3      3000            0.0000000000
     22799      3100  TIP3      H1            -24.2902418481        6.4961515122      -28.1550986609  TIP3      3000            0.0000000000
     22800      3100  TIP3      H2            -23.3423595322        5.4013701456      -27.9772647346  TIP3      3000            0.0000000000
     22801      3101  TIP3      OH2           -19.9680422546        6.7027344845      -25.0595851608  TIP3      3001            0.0000000000
     22802      3101  TIP3      H1            -19.7655343623        6.2031001921      -24.2460962780  TIP3      3001            0.0000000000
     22803      3101  TIP3      H2            -19.0556071862        7.0080438589      -25.2813955501  TIP3      3001            0.0000000000
     22804      3102  TIP3      OH2           -17.4495971832        7.8217301956      -25.2869313620  TIP3      3002            0.0000000000
     22805      3102  TIP3      H1            -17.0232845393        7.5462034270      -26.1117705147  TIP3      3002            0.0000000000
     22806      3102  TIP3      H2            -17.0966332503        8.7092115061      -25.1688651722  TIP3      3002            0.0000000000
     22807      3103  TIP3      OH2           -12.4518829299       -9.8077139631      -26.4348683830  TIP3      3003            0.0000000000
     22808      3103  TIP3      H1            -13.1198341780       -9.3496493164      -26.9723111972  TIP3      3003            0.0000000000
     22809      3103  TIP3      H2            -12.3527871526      -10.6619857556      -26.9155733120  TIP3      3003            0.0000000000
     22810      3104  TIP3      OH2           -26.8482437591        8.4819856033      -28.0658924687  TIP3      3004            0.0000000000
     22811      3104  TIP3      H1            -27.7531144878        8.6650394928      -28.4200271372  TIP3      3004            0.0000000000
     22812      3104  TIP3      H2            -26.8627032178        9.0337501698      -27.2681231556  TIP3      3004            0.0000000000
     22813      3105  TIP3      OH2           -24.2542572049        8.0339045641      -29.0374474559  TIP3      3005            0.0000000000
     22814      3105  TIP3      H1            -25.1444057628        8.2685432593      -28.6828895330  TIP3      3005            0.0000000000
     22815      3105  TIP3      H2            -24.0175434825        8.8905938636      -29.4357917854  TIP3      3005            0.0000000000
     22816      3106  TIP3      OH2           -19.6787851659        7.6396362113      -29.6762213474  TIP3      3006            0.0000000000
     22817      3106  TIP3      H1            -20.2732886788        8.2743184956      -30.0956340113  TIP3      3006            0.0000000000
     22818      3106  TIP3      H2            -19.4570723851        8.1616622687      -28.8574006474  TIP3      3006            0.0000000000
     22819      3107  TIP3      OH2           -17.6405277133        6.3903474863      -28.3921318733  TIP3      3007            0.0000000000
     22820      3107  TIP3      H1            -18.2702539766        6.6433639556      -29.0970932442  TIP3      3007            0.0000000000
     22821      3107  TIP3      H2            -16.9537569139        7.0649948377      -28.5737206265  TIP3      3007            0.0000000000
     22822      3108  TIP3      OH2           -15.5130087623        8.1946580890      -28.7907679233  TIP3      3008            0.0000000000
     22823      3108  TIP3      H1            -15.3611242923        9.1341260616      -29.0231361830  TIP3      3008            0.0000000000
     22824      3108  TIP3      H2            -15.0197487145        7.7627369047      -29.5227786133  TIP3      3008            0.0000000000
     22825      3109  TIP3      OH2           -27.0135217283        6.9718656042      -31.0171630264  TIP3      3009            0.0000000000
     22826      3109  TIP3      H1            -27.0070644149        6.3002965756      -30.3001818208  TIP3      3009            0.0000000000
     22827      3109  TIP3      H2            -26.2064551368        6.6952159913      -31.5221447924  TIP3      3009            0.0000000000
     22828      3110  TIP3      OH2           -25.2460281828        5.7041396959      -32.5211181411  TIP3      3010            0.0000000000
     22829      3110  TIP3      H1            -25.5226013867        4.7757209491      -32.3714787163  TIP3      3010            0.0000000000
     22830      3110  TIP3      H2            -24.3788756778        5.6826285436      -32.0550328253  TIP3      3010            0.0000000000
     22831      3111  TIP3      OH2           -22.9820728555        5.6553501862      -30.9386304549  TIP3      3011            0.0000000000
     22832      3111  TIP3      H1            -22.5643279635        4.7748255532      -30.9795475731  TIP3      3011            0.0000000000
     22833      3111  TIP3      H2            -22.6529453096        5.9858281331      -30.0815716451  TIP3      3011            0.0000000000
     22834      3112  TIP3      OH2           -19.5454560341       -8.7376338126      -32.3936554957  TIP3      3012            0.0000000000
     22835      3112  TIP3      H1            -20.2422319292       -9.0936275426      -31.7966866638  TIP3      3012            0.0000000000
     22836      3112  TIP3      H2            -19.2994223519       -9.5492863959      -32.8576910746  TIP3      3012            0.0000000000
     22837      3113  TIP3      OH2           -13.7091248197      -10.0759398489      -32.2979862535  TIP3      3013            0.0000000000
     22838      3113  TIP3      H1            -13.1440298003       -9.5765782825      -32.9327404603  TIP3      3013            0.0000000000
     22839      3113  TIP3      H2            -14.6145067653       -9.9268186689      -32.6582352644  TIP3      3013            0.0000000000
     22840      3114  TIP3      OH2           -12.2244151920       -9.1269885717      -34.3035478062  TIP3      3014            0.0000000000
     22841      3114  TIP3      H1            -11.5838064106       -9.6792882222      -34.8095831971  TIP3      3014            0.0000000000
     22842      3114  TIP3      H2            -11.6698435262       -8.3275602434      -34.0980036576  TIP3      3014            0.0000000000
     22843      3115  TIP3      OH2           -26.4647382454       -9.8463739622      -34.4929250251  TIP3      3015            0.0000000000
     22844      3115  TIP3      H1            -27.2951267511       -9.9282920647      -35.0010695488  TIP3      3015            0.0000000000
     22845      3115  TIP3      H2            -26.0822706107      -10.7507794498      -34.5967584142  TIP3      3015            0.0000000000
     22846      3116  TIP3      OH2           -27.7387384736      -10.0355228832      -38.9998125376  TIP3      3016            0.0000000000
     22847      3116  TIP3      H1            -27.4493288317       -9.2103310850      -39.4564441442  TIP3      3016            0.0000000000
     22848      3116  TIP3      H2            -28.3570227576       -9.7096358334      -38.3219291532  TIP3      3016            0.0000000000
     22849      3117  TIP3      OH2           -22.3490607876      -10.0875334793      -34.4793126429  TIP3      3017            0.0000000000
     22850      3117  TIP3      H1            -21.4737158715       -9.9938523141      -34.8788311344  TIP3      3017            0.0000000000
     22851      3117  TIP3      H2            -22.3785779040       -9.4105850596      -33.7865315013  TIP3      3017            0.0000000000
     22852      3118  TIP3      OH2           -16.2033740185       -9.8318739941      -33.4575952721  TIP3      3018            0.0000000000
     22853      3118  TIP3      H1            -16.8147566928       -9.3723330368      -34.0395565760  TIP3      3018            0.0000000000
     22854      3118  TIP3      H2            -16.7810228210      -10.5450888030      -33.0889316149  TIP3      3018            0.0000000000
     22855      3119  TIP3      OH2           -14.8073571157       -9.9239168592      -37.6233836421  TIP3      3019            0.0000000000
     22856      3119  TIP3      H1            -15.5269827568       -9.3393169352      -37.8863903962  TIP3      3019            0.0000000000
     22857      3119  TIP3      H2            -15.3061638447      -10.5863947757      -37.1008868219  TIP3      3019            0.0000000000
     22858      3120  TIP3      OH2           -27.9049190402        6.0133067380      -38.2049322253  TIP3      3020            0.0000000000
     22859      3120  TIP3      H1            -28.8852859610        6.1293636349      -38.2093103413  TIP3      3020            0.0000000000
     22860      3120  TIP3      H2            -27.6478518605        6.9192375396      -38.4759321891  TIP3      3020            0.0000000000
     22861      3121  TIP3      OH2           -26.6243852919       -7.9006348693      -40.1279982099  TIP3      3021            0.0000000000
     22862      3121  TIP3      H1            -25.8453703472       -8.0426373312      -40.6800695880  TIP3      3021            0.0000000000
     22863      3121  TIP3      H2            -26.2861927275       -7.2561348509      -39.4979780061  TIP3      3021            0.0000000000
     22864      3122  TIP3      OH2           -21.1620175755       -7.2838454330      -37.9614274132  TIP3      3022            0.0000000000
     22865      3122  TIP3      H1            -20.7216354273       -7.9487117366      -37.4077876369  TIP3      3022            0.0000000000
     22866      3122  TIP3      H2            -20.8777131103       -6.4854410710      -37.4806877391  TIP3      3022            0.0000000000
     22867      3123  TIP3      OH2           -19.0408542747        8.0327637156      -39.9058690256  TIP3      3023            0.0000000000
     22868      3123  TIP3      H1            -18.0665870756        7.8980792778      -39.8975761417  TIP3      3023            0.0000000000
     22869      3123  TIP3      H2            -19.2755973800        7.1741592091      -40.3283528606  TIP3      3023            0.0000000000
     22870      3124  TIP3      OH2           -12.5981125318        6.7938051867      -36.3642360062  TIP3      3024            0.0000000000
     22871      3124  TIP3      H1            -12.8723279373        5.9714474432      -36.8400392824  TIP3      3024            0.0000000000
     22872      3124  TIP3      H2            -12.5593129837        7.4301848193      -37.1008353874  TIP3      3024            0.0000000000
     22873      3125  TIP3      OH2           -26.9052890158       -8.9630799266      -25.2547815174  TIP3      3025            0.0000000000
     22874      3125  TIP3      H1            -27.4843520611       -9.7232792568      -25.0757368001  TIP3      3025            0.0000000000
     22875      3125  TIP3      H2            -26.1473700721       -9.1830376009      -24.6713695677  TIP3      3025            0.0000000000
     22876      3126  TIP3      OH2           -25.1733184634       -9.4877456078      -23.2204647682  TIP3      3026            0.0000000000
     22877      3126  TIP3      H1            -24.2666201376       -9.7358153580      -23.4986519019  TIP3      3026            0.0000000000
     22878      3126  TIP3      H2            -25.4910822487      -10.3584225825      -22.9068785544  TIP3      3026            0.0000000000
     22879      3127  TIP3      OH2           -26.4156952885        6.8747924748      -40.9182721953  TIP3      3027            0.0000000000
     22880      3127  TIP3      H1            -26.3696668293        7.6099984608      -40.2975205535  TIP3      3027            0.0000000000
     22881      3127  TIP3      H2            -26.3947030981        6.1109304389      -40.3139533442  TIP3      3027            0.0000000000
     22882      3128  TIP3      OH2           -16.7475625035      -10.6262378504      -23.4625962421  TIP3      3028            0.0000000000
     22883      3128  TIP3      H1            -17.0842580185      -11.5412610001      -23.4971074126  TIP3      3028            0.0000000000
     22884      3128  TIP3      H2            -15.7802032157      -10.7857476020      -23.4991301401  TIP3      3028            0.0000000000
     22885      3129  TIP3      OH2           -13.2406576237        5.8628860342      -24.8683205646  TIP3      3029            0.0000000000
     22886      3129  TIP3      H1            -13.7491888265        5.8275607467      -25.7133722303  TIP3      3029            0.0000000000
     22887      3129  TIP3      H2            -13.5564452124        6.7126440571      -24.5154071878  TIP3      3029            0.0000000000
     22888      3130  TIP3      OH2             1.5544735648       -0.3335817645      -34.6719341258  TIP3      3030            0.0000000000
     22889      3130  TIP3      H1              1.4415181646        0.5586230672      -34.2990495844  TIP3      3030            0.0000000000
     22890      3130  TIP3      H2              0.7370476766       -0.4415492026      -35.1770582928  TIP3      3030            0.0000000000
     22891      3131  TIP3      OH2             0.2392124632       -1.6409050219      -31.3733940979  TIP3      3031            0.0000000000
     22892      3131  TIP3      H1              0.3516966875       -1.9270746937      -30.4428116206  TIP3      3031            0.0000000000
     22893      3131  TIP3      H2             -0.5953578035       -2.0718640721      -31.6200130287  TIP3      3031            0.0000000000
     22894      3132  TIP3      OH2            -7.6932506873       -1.6163610759      -29.7997629825  TIP3      3032            0.0000000000
     22895      3132  TIP3      H1             -7.8263778136       -2.2719557781      -29.0909197493  TIP3      3032            0.0000000000
     22896      3132  TIP3      H2             -6.7150406739       -1.6676370063      -29.8980019892  TIP3      3032            0.0000000000
     22897      3133  TIP3      OH2             3.4093111810        1.5118811785      -32.5151737059  TIP3      3033            0.0000000000
     22898      3133  TIP3      H1              3.2411868536        0.7727510843      -31.8955194057  TIP3      3033            0.0000000000
     22899      3133  TIP3      H2              3.5450170071        2.2729379158      -31.9246946951  TIP3      3033            0.0000000000
     22900      3134  TIP3      OH2            -6.5783590763        3.0406594731      -31.2679230684  TIP3      3034            0.0000000000
     22901      3134  TIP3      H1             -6.9397915108        2.2186345478      -31.6540508862  TIP3      3034            0.0000000000
     22902      3134  TIP3      H2             -5.6222917467        2.8706308052      -31.3839554617  TIP3      3034            0.0000000000
     22903      3135  TIP3      OH2            -9.7971473441       -3.7995316934      -35.6124812081  TIP3      3035            0.0000000000
     22904      3135  TIP3      H1            -10.1179785061       -2.8849057298      -35.5921682985  TIP3      3035            0.0000000000
     22905      3135  TIP3      H2            -10.6413500464       -4.2509615258      -35.7953561596  TIP3      3035            0.0000000000
     22906      3136  TIP3      OH2            -9.8536855250       -1.3546638280      -33.2179498280  TIP3      3036            0.0000000000
     22907      3136  TIP3      H1             -9.5581943751       -2.2890713524      -33.1306137839  TIP3      3036            0.0000000000
     22908      3136  TIP3      H2             -9.0415040925       -0.9128595171      -33.5097271837  TIP3      3036            0.0000000000
     22909      3137  TIP3      OH2             0.9360759417        6.9575091860      -33.0261053092  TIP3      3037            0.0000000000
     22910      3137  TIP3      H1              1.6084851394        6.4046830327      -33.4859767171  TIP3      3037            0.0000000000
     22911      3137  TIP3      H2              0.7189180734        6.3601222784      -32.2986079899  TIP3      3037            0.0000000000
     22912      3138  TIP3      OH2            -1.8450943423        1.3619411219      -30.3029698883  TIP3      3038            0.0000000000
     22913      3138  TIP3      H1             -1.5970586182        1.1626477474      -31.2137897188  TIP3      3038            0.0000000000
     22914      3138  TIP3      H2             -0.9535555551        1.4989712917      -29.9108844961  TIP3      3038            0.0000000000
     22915      3139  TIP3      OH2             6.8305454121       -7.2970552335      -30.3015962383  TIP3      3039            0.0000000000
     22916      3139  TIP3      H1              7.0364798682       -6.8195512188      -29.4694391837  TIP3      3039            0.0000000000
     22917      3139  TIP3      H2              7.5683649137       -7.0207008346      -30.8666777806  TIP3      3039            0.0000000000
     22918      3140  TIP3      OH2             2.0034266922       -4.2620382306      -30.1571570719  TIP3      3040            0.0000000000
     22919      3140  TIP3      H1              2.0647006171       -5.1585721484      -29.7826685695  TIP3      3040            0.0000000000
     22920      3140  TIP3      H2              2.0648870615       -4.4828127921      -31.1071069921  TIP3      3040            0.0000000000
     22921      3141  TIP3      OH2            -5.0141466741       -6.7536919687      -33.5116402827  TIP3      3041            0.0000000000
     22922      3141  TIP3      H1             -4.9931859179       -5.8096300515      -33.7828674701  TIP3      3041            0.0000000000
     22923      3141  TIP3      H2             -5.6473190564       -7.1054134135      -34.1640447091  TIP3      3041            0.0000000000
     22924      3142  TIP3      OH2             2.1314902333       -6.2975947280      -34.8651713679  TIP3      3042            0.0000000000
     22925      3142  TIP3      H1              2.6566734113       -6.5075378553      -34.0606589651  TIP3      3042            0.0000000000
     22926      3142  TIP3      H2              2.6585408868       -5.5633858818      -35.2362363312  TIP3      3042            0.0000000000
     22927      3143  TIP3      OH2            -8.7138643824       -3.7055231760      -32.5663936902  TIP3      3043            0.0000000000
     22928      3143  TIP3      H1             -8.0233717843       -4.0377292390      -31.9707216193  TIP3      3043            0.0000000000
     22929      3143  TIP3      H2             -8.4586317419       -4.1497808812      -33.4021689533  TIP3      3043            0.0000000000
     22930      3144  TIP3      OH2            -3.9204963766       -2.2612149277      -32.8921296169  TIP3      3044            0.0000000000
     22931      3144  TIP3      H1             -3.0926443543       -2.7077827263      -32.5951572232  TIP3      3044            0.0000000000
     22932      3144  TIP3      H2             -4.3666810771       -3.0151621354      -33.3539477571  TIP3      3044            0.0000000000
     22933      3145  TIP3      OH2             7.0838044329       -5.8726906020      -27.8901395220  TIP3      3045            0.0000000000
     22934      3145  TIP3      H1              6.7974394181       -5.0384290040      -28.3303183553  TIP3      3045            0.0000000000
     22935      3145  TIP3      H2              7.4139580327       -5.5258238373      -27.0522315543  TIP3      3045            0.0000000000
     22936      3146  TIP3      OH2            -6.0375511818       -7.2906642420      -29.2047636518  TIP3      3046            0.0000000000
     22937      3146  TIP3      H1             -6.5525351354       -6.8612197077      -29.9200828719  TIP3      3046            0.0000000000
     22938      3146  TIP3      H2             -6.6642205488       -7.1750164595      -28.4640385385  TIP3      3046            0.0000000000
     22939      3147  TIP3      OH2             0.6677000952        2.2430035690      -35.7003999521  TIP3      3047            0.0000000000
     22940      3147  TIP3      H1              0.5115867709        2.2134950796      -36.6728787948  TIP3      3047            0.0000000000
     22941      3147  TIP3      H2              0.0264458646        2.9313170640      -35.4389753164  TIP3      3047            0.0000000000
     22942      3148  TIP3      OH2            -4.0564385091        0.3542709617      -29.2149061543  TIP3      3048            0.0000000000
     22943      3148  TIP3      H1             -4.6563008109        1.0980581102      -28.9670812919  TIP3      3048            0.0000000000
     22944      3148  TIP3      H2             -3.2875178658        0.8352174051      -29.6035983150  TIP3      3048            0.0000000000
     22945      3149  TIP3      OH2             3.9869906740       -6.0747427406      -32.7797528089  TIP3      3049            0.0000000000
     22946      3149  TIP3      H1              4.1302492091       -6.9660813417      -32.4315907807  TIP3      3049            0.0000000000
     22947      3149  TIP3      H2              4.7556976433       -5.5915934313      -32.4219371445  TIP3      3049            0.0000000000
     22948      3150  TIP3      OH2            -6.7557641813       -5.4346411906      -31.2885359946  TIP3      3050            0.0000000000
     22949      3150  TIP3      H1             -6.1025736218       -4.8701233259      -30.8132982696  TIP3      3050            0.0000000000
     22950      3150  TIP3      H2             -6.2250985397       -5.7410432074      -32.0439464698  TIP3      3050            0.0000000000
     22951      3151  TIP3      OH2            -5.2717756236        2.6131326818      -28.2576440036  TIP3      3051            0.0000000000
     22952      3151  TIP3      H1             -5.4337447010        3.5023975257      -28.6065351082  TIP3      3051            0.0000000000
     22953      3151  TIP3      H2             -6.1363520733        2.4690037998      -27.7951367249  TIP3      3051            0.0000000000
     22954      3152  TIP3      OH2            -9.6561424432        1.7559850307      -37.4576612769  TIP3      3052            0.0000000000
     22955      3152  TIP3      H1             -9.6497095762        2.2292102813      -38.3194904262  TIP3      3052            0.0000000000
     22956      3152  TIP3      H2             -9.5619054570        2.4836182255      -36.8170881320  TIP3      3052            0.0000000000
     22957      3153  TIP3      OH2             4.2337575571        3.7945031684      -30.7664048826  TIP3      3053            0.0000000000
     22958      3153  TIP3      H1              3.3097364378        3.9365676051      -30.4626011552  TIP3      3053            0.0000000000
     22959      3153  TIP3      H2              4.3865582648        4.6501405031      -31.1930101167  TIP3      3053            0.0000000000
     22960      3154  TIP3      OH2             4.0272026392       -8.1043412043      -29.5625397764  TIP3      3054            0.0000000000
     22961      3154  TIP3      H1              3.2012144360       -7.8232111471      -30.0167377583  TIP3      3054            0.0000000000
     22962      3154  TIP3      H2              4.7225019047       -7.5930444074      -30.0096874677  TIP3      3054            0.0000000000
     22963      3155  TIP3      OH2            -2.6744496513       -9.7718136137      -31.9463085125  TIP3      3055            0.0000000000
     22964      3155  TIP3      H1             -2.8276792853      -10.7235550423      -31.9626766106  TIP3      3055            0.0000000000
     22965      3155  TIP3      H2             -3.5393105889       -9.4486866471      -31.6020577645  TIP3      3055            0.0000000000
     22966      3156  TIP3      OH2             2.5860666690        5.2422693794      -34.2768118422  TIP3      3056            0.0000000000
     22967      3156  TIP3      H1              2.9619810618        4.5122772540      -34.8237658741  TIP3      3056            0.0000000000
     22968      3156  TIP3      H2              3.2506674781        5.9501962355      -34.4479255211  TIP3      3056            0.0000000000
     22969      3157  TIP3      OH2             3.7750539256        3.2179254285      -35.5629788945  TIP3      3057            0.0000000000
     22970      3157  TIP3      H1              3.5160501426        2.6425762395      -36.3096569528  TIP3      3057            0.0000000000
     22971      3157  TIP3      H2              3.6792079068        2.6293273854      -34.7976159845  TIP3      3057            0.0000000000
     22972      3158  TIP3      OH2             5.2893105033        2.0360071255      -26.8424504360  TIP3      3058            0.0000000000
     22973      3158  TIP3      H1              5.4330522940        1.3358147029      -27.5227920435  TIP3      3058            0.0000000000
     22974      3158  TIP3      H2              5.2805650711        2.8248333281      -27.4276875482  TIP3      3058            0.0000000000
     22975      3159  TIP3      OH2            -0.5004969584       -1.2816895572      -37.3984396663  TIP3      3059            0.0000000000
     22976      3159  TIP3      H1             -0.8901813234       -0.3808759024      -37.4354032838  TIP3      3059            0.0000000000
     22977      3159  TIP3      H2              0.3265903868       -1.1711545637      -37.8977326713  TIP3      3059            0.0000000000
     22978      3160  TIP3      OH2            -0.0649368763       -2.1677679872      -40.1544279672  TIP3      3060            0.0000000000
     22979      3160  TIP3      H1              0.6616494782       -1.9094140365      -39.5566469329  TIP3      3060            0.0000000000
     22980      3160  TIP3      H2              0.1050904187       -3.1018298094      -40.2928539758  TIP3      3060            0.0000000000
     22981      3161  TIP3      OH2             7.3071213278       -1.7194444398      -29.1235330359  TIP3      3061            0.0000000000
     22982      3161  TIP3      H1              6.6360995879       -1.0194062097      -28.9814516669  TIP3      3061            0.0000000000
     22983      3161  TIP3      H2              7.8744825331       -1.2592142524      -29.7836299599  TIP3      3061            0.0000000000
     22984      3162  TIP3      OH2             3.9244345808       -0.6922654148      -36.0154052209  TIP3      3062            0.0000000000
     22985      3162  TIP3      H1              3.1259023870       -0.5185065863      -35.4622293966  TIP3      3062            0.0000000000
     22986      3162  TIP3      H2              4.4042051486       -1.3083796413      -35.4285832887  TIP3      3062            0.0000000000
     22987      3163  TIP3      OH2             3.3508454293       -2.5843159544      -27.5429003104  TIP3      3063            0.0000000000
     22988      3163  TIP3      H1              2.9785380565       -1.9088123723      -26.9622294158  TIP3      3063            0.0000000000
     22989      3163  TIP3      H2              2.7137551528       -2.5461289607      -28.2754293560  TIP3      3063            0.0000000000
     22990      3164  TIP3      OH2            -5.0145147700       -0.3820686338      -34.3212943268  TIP3      3064            0.0000000000
     22991      3164  TIP3      H1             -5.3390500498       -0.7989213368      -35.1489647416  TIP3      3064            0.0000000000
     22992      3164  TIP3      H2             -4.5332882148       -1.1201821301      -33.8851315628  TIP3      3064            0.0000000000
     22993      3165  TIP3      OH2            -3.8491785432        2.7903798566      -31.7518138890  TIP3      3065            0.0000000000
     22994      3165  TIP3      H1             -3.5995899632        2.7104327143      -32.6827094379  TIP3      3065            0.0000000000
     22995      3165  TIP3      H2             -3.1273264968        2.3489606886      -31.2633828477  TIP3      3065            0.0000000000
     22996      3166  TIP3      OH2            -5.0417819224       -1.7095196732      -30.5397889144  TIP3      3066            0.0000000000
     22997      3166  TIP3      H1             -4.7474247029       -1.6828254806      -31.4802337097  TIP3      3066            0.0000000000
     22998      3166  TIP3      H2             -4.4376368177       -1.0579195802      -30.1179221231  TIP3      3066            0.0000000000
     22999      3167  TIP3      OH2             1.7182332924        4.0491569242      -29.9879802902  TIP3      3067            0.0000000000
     23000      3167  TIP3      H1              1.4525894497        4.6330340289      -29.2546740067  TIP3      3067            0.0000000000
     23001      3167  TIP3      H2              1.5344665286        3.1639113132      -29.6126574473  TIP3      3067            0.0000000000
     23002      3168  TIP3      OH2            -3.7918653699        2.8091241549      -25.9838140065  TIP3      3068            0.0000000000
     23003      3168  TIP3      H1             -4.4329006838        3.4037791009      -25.5281943377  TIP3      3068            0.0000000000
     23004      3168  TIP3      H2             -4.2683454575        2.6471499357      -26.8296916249  TIP3      3068            0.0000000000
     23005      3169  TIP3      OH2             2.1335509969       -1.3348153257      -38.2435784153  TIP3      3069            0.0000000000
     23006      3169  TIP3      H1              2.8017939654       -1.1335036009      -37.5498472468  TIP3      3069            0.0000000000
     23007      3169  TIP3      H2              2.5612315199       -0.9230311385      -39.0329908468  TIP3      3069            0.0000000000
     23008      3170  TIP3      OH2            -6.7842521013       -0.7708404346      -27.0006200072  TIP3      3070            0.0000000000
     23009      3170  TIP3      H1             -6.6904705049        0.0202630672      -26.4368067581  TIP3      3070            0.0000000000
     23010      3170  TIP3      H2             -7.6718501790       -1.0857136061      -26.7496019138  TIP3      3070            0.0000000000
     23011      3171  TIP3      OH2            -1.0149330873        4.4168180526      -35.3715335131  TIP3      3071            0.0000000000
     23012      3171  TIP3      H1             -0.4755864960        4.8850945458      -34.7284394866  TIP3      3071            0.0000000000
     23013      3171  TIP3      H2             -1.1329904418        5.0696545485      -36.0807988894  TIP3      3071            0.0000000000
     23014      3172  TIP3      OH2            -5.4950847073        4.6540823670      -25.1445024155  TIP3      3072            0.0000000000
     23015      3172  TIP3      H1             -5.7902159898        4.9358363806      -26.0287777296  TIP3      3072            0.0000000000
     23016      3172  TIP3      H2             -6.3267948196        4.3258962490      -24.7380898176  TIP3      3072            0.0000000000
     23017      3173  TIP3      OH2             6.2515494912       -9.9899353996      -38.5107657036  TIP3      3073            0.0000000000
     23018      3173  TIP3      H1              5.2959220587       -9.8760226380      -38.2997549205  TIP3      3073            0.0000000000
     23019      3173  TIP3      H2              6.4587796967       -9.1287291075      -38.9245606810  TIP3      3073            0.0000000000
     23020      3174  TIP3      OH2            -6.4932899194       -1.5667756840      -36.3785509919  TIP3      3074            0.0000000000
     23021      3174  TIP3      H1             -6.8085641634       -0.8847758815      -37.0001522572  TIP3      3074            0.0000000000
     23022      3174  TIP3      H2             -6.6301141842       -2.3832490228      -36.8731939296  TIP3      3074            0.0000000000
     23023      3175  TIP3      OH2             7.0715241694        4.3051594836      -40.2962155312  TIP3      3075            0.0000000000
     23024      3175  TIP3      H1              7.3346685343        5.2488138280      -40.2893898325  TIP3      3075            0.0000000000
     23025      3175  TIP3      H2              7.9326816940        3.8368072266      -40.2072015666  TIP3      3075            0.0000000000
     23026      3176  TIP3      OH2            -9.6717420670        1.2514725559      -27.7987331172  TIP3      3076            0.0000000000
     23027      3176  TIP3      H1            -10.1641600312        1.1988740649      -28.6332123140  TIP3      3076            0.0000000000
     23028      3176  TIP3      H2             -9.3136220484        0.3483556837      -27.7471639502  TIP3      3076            0.0000000000
     23029      3177  TIP3      OH2            -9.9883717990        3.8042664359      -31.0075002027  TIP3      3077            0.0000000000
     23030      3177  TIP3      H1             -9.1486362049        3.3665110561      -30.8192106024  TIP3      3077            0.0000000000
     23031      3177  TIP3      H2             -9.7909890214        4.7199544592      -30.7662542149  TIP3      3077            0.0000000000
     23032      3178  TIP3      OH2             7.9702103431        4.3649526388      -25.4628069343  TIP3      3078            0.0000000000
     23033      3178  TIP3      H1              7.7886784195        3.4215301474      -25.5713441074  TIP3      3078            0.0000000000
     23034      3178  TIP3      H2              7.0970091884        4.6753115216      -25.1339426294  TIP3      3078            0.0000000000
     23035      3179  TIP3      OH2            -1.0624781007        3.9531031297      -26.5644627864  TIP3      3079            0.0000000000
     23036      3179  TIP3      H1             -0.8658090307        4.8376765151      -26.1816737498  TIP3      3079            0.0000000000
     23037      3179  TIP3      H2             -2.0364099666        3.9175240306      -26.5457653042  TIP3      3079            0.0000000000
     23038      3180  TIP3      OH2            -0.8582354615        7.8682100846      -37.1835870585  TIP3      3080            0.0000000000
     23039      3180  TIP3      H1             -0.7298919910        8.0318664534      -38.1419774526  TIP3      3080            0.0000000000
     23040      3180  TIP3      H2             -0.6890162285        8.7439187333      -36.8003661601  TIP3      3080            0.0000000000
     23041      3181  TIP3      OH2            -6.9430758122        6.3593613340      -34.7376433705  TIP3      3081            0.0000000000
     23042      3181  TIP3      H1             -6.6385232289        6.0135516711      -33.8634950548  TIP3      3081            0.0000000000
     23043      3181  TIP3      H2             -7.7655758992        5.8427592300      -34.8551374824  TIP3      3081            0.0000000000
     23044      3182  TIP3      OH2             2.1259153378        7.0361201553      -39.8712246019  TIP3      3082            0.0000000000
     23045      3182  TIP3      H1              2.5742245882        6.2876323511      -40.3041666268  TIP3      3082            0.0000000000
     23046      3182  TIP3      H2              2.2868523285        6.8796062056      -38.9135076112  TIP3      3082            0.0000000000
     23047      3183  TIP3      OH2             1.9442527087        7.1022573957      -37.1282690573  TIP3      3083            0.0000000000
     23048      3183  TIP3      H1              1.0496480408        7.2909713587      -36.7821513170  TIP3      3083            0.0000000000
     23049      3183  TIP3      H2              2.1150830127        6.2345362963      -36.7332880401  TIP3      3083            0.0000000000
     23050      3184  TIP3      OH2             4.9651971308       -4.4164783626      -24.9851455087  TIP3      3084            0.0000000000
     23051      3184  TIP3      H1              4.2729265261       -4.0441556581      -25.5653079301  TIP3      3084            0.0000000000
     23052      3184  TIP3      H2              4.8024304776       -5.3723836721      -25.1399358983  TIP3      3084            0.0000000000
     23053      3185  TIP3      OH2            -7.4784711829        2.6143920626      -26.8172277576  TIP3      3085            0.0000000000
     23054      3185  TIP3      H1             -7.3129545530        2.1043612332      -25.9936366631  TIP3      3085            0.0000000000
     23055      3185  TIP3      H2             -8.3706327660        2.3011932082      -27.0789065422  TIP3      3085            0.0000000000
     23056      3186  TIP3      OH2            -4.9953476577       -8.9763310849      -30.9502933994  TIP3      3086            0.0000000000
     23057      3186  TIP3      H1             -5.8621040700       -8.8783422172      -31.3776853435  TIP3      3086            0.0000000000
     23058      3186  TIP3      H2             -5.1438280859       -8.3872498920      -30.1834018244  TIP3      3086            0.0000000000
     23059      3187  TIP3      OH2            -0.1602188875       -9.4305630392      -28.0219456707  TIP3      3087            0.0000000000
     23060      3187  TIP3      H1              0.2104363561       -9.8238220973      -27.2045042426  TIP3      3087            0.0000000000
     23061      3187  TIP3      H2             -1.0982637204       -9.3035126258      -27.7668026550  TIP3      3087            0.0000000000
     23062      3188  TIP3      OH2             2.6668456118       -5.2372647767      -26.3941277122  TIP3      3088            0.0000000000
     23063      3188  TIP3      H1              1.9884801165       -5.5697555413      -25.7565951452  TIP3      3088            0.0000000000
     23064      3188  TIP3      H2              2.2648397558       -4.4021035137      -26.6641503341  TIP3      3088            0.0000000000
     23065      3189  TIP3      OH2             3.3937676875       -0.3771871972      -40.3821696986  TIP3      3089            0.0000000000
     23066      3189  TIP3      H1              3.3007642480       -0.3640317092      -41.3487889456  TIP3      3089            0.0000000000
     23067      3189  TIP3      H2              4.3370249448       -0.1414387342      -40.3121423568  TIP3      3089            0.0000000000
     23068      3190  TIP3      OH2            -0.4858163487       -6.4875869834      -40.2552318152  TIP3      3090            0.0000000000
     23069      3190  TIP3      H1             -1.1297884305       -6.5994194940      -39.5183193591  TIP3      3090            0.0000000000
     23070      3190  TIP3      H2             -0.5895907569       -7.3518882119      -40.6716863801  TIP3      3090            0.0000000000
     23071      3191  TIP3      OH2            -4.8669232802       -4.2636648620      -29.7356842447  TIP3      3091            0.0000000000
     23072      3191  TIP3      H1             -5.6163970944       -4.1776338028      -29.1093815750  TIP3      3091            0.0000000000
     23073      3191  TIP3      H2             -4.8022230265       -3.3299849935      -30.0336189511  TIP3      3091            0.0000000000
     23074      3192  TIP3      OH2            -5.0235455945       -4.1897247991      -34.3769982374  TIP3      3092            0.0000000000
     23075      3192  TIP3      H1             -5.9511801524       -4.1053634475      -34.6973854181  TIP3      3092            0.0000000000
     23076      3192  TIP3      H2             -4.5634779617       -4.3250063566      -35.2304806423  TIP3      3092            0.0000000000
     23077      3193  TIP3      OH2             0.6342267967       -3.1778357653      -35.8672245447  TIP3      3093            0.0000000000
     23078      3193  TIP3      H1              0.2553735380       -2.4584779245      -36.4320377313  TIP3      3093            0.0000000000
     23079      3193  TIP3      H2              1.2735296992       -3.5476749567      -36.4995939480  TIP3      3093            0.0000000000
     23080      3194  TIP3      OH2            -0.8571941508       -2.7306693335      -24.9619798602  TIP3      3094            0.0000000000
     23081      3194  TIP3      H1             -1.2226691936       -3.6233826181      -24.7789830978  TIP3      3094            0.0000000000
     23082      3194  TIP3      H2             -0.0990355197       -2.7225612741      -24.3601571291  TIP3      3094            0.0000000000
     23083      3195  TIP3      OH2             1.6907572759       -3.9069721481      -33.1200953395  TIP3      3095            0.0000000000
     23084      3195  TIP3      H1              1.4351435957       -3.0574568304      -33.5239165222  TIP3      3095            0.0000000000
     23085      3195  TIP3      H2              1.5244157908       -4.4901667015      -33.8773106976  TIP3      3095            0.0000000000
     23086      3196  TIP3      OH2            -7.4578839232       -4.1046172570      -28.4565659212  TIP3      3096            0.0000000000
     23087      3196  TIP3      H1             -6.9974342503       -3.8037365451      -27.6505158390  TIP3      3096            0.0000000000
     23088      3196  TIP3      H2             -7.7957403432       -4.9840115381      -28.2034355322  TIP3      3096            0.0000000000
     23089      3197  TIP3      OH2            -4.2142733798       -6.4240206352      -41.2220007450  TIP3      3097            0.0000000000
     23090      3197  TIP3      H1             -4.4480572541       -6.9290438317      -40.4154127831  TIP3      3097            0.0000000000
     23091      3197  TIP3      H2             -4.5900528623       -5.5543431762      -41.0234012459  TIP3      3097            0.0000000000
     23092      3198  TIP3      OH2           -10.6897521444       -6.9615115396      -34.0376229337  TIP3      3098            0.0000000000
     23093      3198  TIP3      H1            -10.0133652738       -6.8469839429      -33.3494196154  TIP3      3098            0.0000000000
     23094      3198  TIP3      H2            -10.1859522421       -6.9457534541      -34.8716281728  TIP3      3098            0.0000000000
     23095      3199  TIP3      OH2            -9.6322045761       -6.1524132710      -38.6562722257  TIP3      3099            0.0000000000
     23096      3199  TIP3      H1             -8.9555649922       -5.8990697971      -39.3091939237  TIP3      3099            0.0000000000
     23097      3199  TIP3      H2             -9.9921200323       -5.2953964632      -38.4040271367  TIP3      3099            0.0000000000
     23098      3200  TIP3      OH2             0.6988862256       -2.3211318041      -28.7773708528  TIP3      3100            0.0000000000
     23099      3200  TIP3      H1              1.2330334184       -2.9455043226      -29.3249889228  TIP3      3100            0.0000000000
     23100      3200  TIP3      H2              0.1126643258       -2.9467572460      -28.2876358489  TIP3      3100            0.0000000000
     23101      3201  TIP3      OH2            -1.9927383569       -6.6735326543      -33.7644147065  TIP3      3101            0.0000000000
     23102      3201  TIP3      H1             -2.9277249455       -6.8531481057      -33.5476606608  TIP3      3101            0.0000000000
     23103      3201  TIP3      H2             -1.4975863872       -7.0212513800      -32.9991074446  TIP3      3101            0.0000000000
     23104      3202  TIP3      OH2            -7.5031824546       -4.9379591249      -34.9527229217  TIP3      3102            0.0000000000
     23105      3202  TIP3      H1             -8.2371306972       -4.5944636689      -35.5058008934  TIP3      3102            0.0000000000
     23106      3202  TIP3      H2             -7.3582180605       -5.8374002731      -35.3122235699  TIP3      3102            0.0000000000
     23107      3203  TIP3      OH2            -4.2770720544       -4.5454904858      -37.0042842866  TIP3      3103            0.0000000000
     23108      3203  TIP3      H1             -3.3029732052       -4.4859035575      -36.9506656674  TIP3      3103            0.0000000000
     23109      3203  TIP3      H2             -4.4872122436       -4.1476862466      -37.8632020467  TIP3      3103            0.0000000000
     23110      3204  TIP3      OH2             1.7767161022       -7.3061451841      -30.7333687542  TIP3      3104            0.0000000000
     23111      3204  TIP3      H1              1.0390953912       -7.5044461617      -30.1330672729  TIP3      3104            0.0000000000
     23112      3204  TIP3      H2              1.5406372538       -7.8094320760      -31.5276053951  TIP3      3104            0.0000000000
     23113      3205  TIP3      OH2            -5.4211098772       -3.0974215263      -40.2689089893  TIP3      3105            0.0000000000
     23114      3205  TIP3      H1             -6.0886611212       -3.1170928524      -40.9679941432  TIP3      3105            0.0000000000
     23115      3205  TIP3      H2             -4.6017023383       -2.8942137983      -40.7523413546  TIP3      3105            0.0000000000
     23116      3206  TIP3      OH2             4.8914101476        8.3686261367      -24.1263771580  TIP3      3106            0.0000000000
     23117      3206  TIP3      H1              5.3848657282        8.8254889570      -24.8375101092  TIP3      3106            0.0000000000
     23118      3206  TIP3      H2              4.9989460249        8.9773835190      -23.3751366550  TIP3      3106            0.0000000000
     23119      3207  TIP3      OH2            -7.1312174128        0.7823265508      -24.7582681275  TIP3      3107            0.0000000000
     23120      3207  TIP3      H1             -6.3812155568        0.8101163718      -24.1177087659  TIP3      3107            0.0000000000
     23121      3207  TIP3      H2             -7.9047293984        0.6405943175      -24.1628075381  TIP3      3107            0.0000000000
     23122      3208  TIP3      OH2            -1.7303512821       -3.5707420864      -32.0388645339  TIP3      3108            0.0000000000
     23123      3208  TIP3      H1             -0.9281342119       -3.8777579370      -32.4925054095  TIP3      3108            0.0000000000
     23124      3208  TIP3      H2             -1.9616692105       -4.3253699209      -31.4786789272  TIP3      3108            0.0000000000
     23125      3209  TIP3      OH2            -6.7561242043       -7.6706821499      -35.5776735608  TIP3      3109            0.0000000000
     23126      3209  TIP3      H1             -7.2858394263       -8.3017413449      -35.0520087815  TIP3      3109            0.0000000000
     23127      3209  TIP3      H2             -6.3389283173       -8.2689446685      -36.2153935361  TIP3      3109            0.0000000000
     23128      3210  TIP3      OH2            -2.4980064234       -5.5207347253      -29.3089041560  TIP3      3110            0.0000000000
     23129      3210  TIP3      H1             -3.2685787567       -4.9238023605      -29.3944950196  TIP3      3110            0.0000000000
     23130      3210  TIP3      H2             -1.8137155442       -4.9406948409      -28.9299109643  TIP3      3110            0.0000000000
     23131      3211  TIP3      OH2            -1.9419736386        0.9547776686      -37.5399532801  TIP3      3111            0.0000000000
     23132      3211  TIP3      H1             -2.5894561108        0.2810567806      -37.8194070800  TIP3      3111            0.0000000000
     23133      3211  TIP3      H2             -2.3468982284        1.2712327360      -36.6982966354  TIP3      3111            0.0000000000
     23134      3212  TIP3      OH2             5.3507086733        0.2984263221      -28.8946132288  TIP3      3112            0.0000000000
     23135      3212  TIP3      H1              5.8918273726        0.7860926324      -29.5539492920  TIP3      3112            0.0000000000
     23136      3212  TIP3      H2              4.4755893996        0.3125966686      -29.3205593253  TIP3      3112            0.0000000000
     23137      3213  TIP3      OH2             2.2029734369       -6.1696693240      -39.6578030430  TIP3      3113            0.0000000000
     23138      3213  TIP3      H1              1.2440233910       -6.2507041359      -39.8218792428  TIP3      3113            0.0000000000
     23139      3213  TIP3      H2              2.2006859190       -5.3384145191      -39.1321279680  TIP3      3113            0.0000000000
     23140      3214  TIP3      OH2            -0.7870220742        1.1691451472      -26.8667623715  TIP3      3114            0.0000000000
     23141      3214  TIP3      H1             -0.7453271236        0.7833242693      -25.9899431952  TIP3      3114            0.0000000000
     23142      3214  TIP3      H2             -1.0361594395        2.0908347958      -26.6615590323  TIP3      3114            0.0000000000
     23143      3215  TIP3      OH2             2.2374190674       -4.0328631592      -38.0404759552  TIP3      3115            0.0000000000
     23144      3215  TIP3      H1              2.9397258403       -4.3376236649      -37.4269667708  TIP3      3115            0.0000000000
     23145      3215  TIP3      H2              2.5618189980       -3.1614065245      -38.3248582837  TIP3      3115            0.0000000000
     23146      3216  TIP3      OH2            -6.8493781823        0.4308264375      -32.3226455404  TIP3      3116            0.0000000000
     23147      3216  TIP3      H1             -6.2261485503        0.3304768286      -33.0712969423  TIP3      3116            0.0000000000
     23148      3216  TIP3      H2             -6.5161705522       -0.2191505769      -31.6773925427  TIP3      3116            0.0000000000
     23149      3217  TIP3      OH2             0.0832435593        2.3494379993      -38.3341097948  TIP3      3117            0.0000000000
     23150      3217  TIP3      H1             -0.3909956917        3.2020736113      -38.3508611291  TIP3      3117            0.0000000000
     23151      3217  TIP3      H2             -0.6634879548        1.7173645261      -38.1972469449  TIP3      3117            0.0000000000
     23152      3218  TIP3      OH2            -9.4942029683       -1.4873047261      -26.7002010180  TIP3      3118            0.0000000000
     23153      3218  TIP3      H1            -10.0728249137       -1.9888179777      -26.0846557660  TIP3      3118            0.0000000000
     23154      3218  TIP3      H2             -9.9725775495       -1.6303169029      -27.5383443884  TIP3      3118            0.0000000000
     23155      3219  TIP3      OH2            -3.3632413806       -1.6411364215      -24.8174416473  TIP3      3119            0.0000000000
     23156      3219  TIP3      H1             -3.2975033308       -1.9075467425      -25.7498358954  TIP3      3119            0.0000000000
     23157      3219  TIP3      H2             -2.5143557725       -2.0138285836      -24.5147304309  TIP3      3119            0.0000000000
     23158      3220  TIP3      OH2             2.1024770243        3.6183734303      -26.4909438254  TIP3      3120            0.0000000000
     23159      3220  TIP3      H1              1.2486336736        3.7007568797      -26.9450117749  TIP3      3120            0.0000000000
     23160      3220  TIP3      H2              1.8175206117        3.9115304251      -25.5932752090  TIP3      3120            0.0000000000
     23161      3221  TIP3      OH2             7.3141300708       -4.0951729777      -37.7697160101  TIP3      3121            0.0000000000
     23162      3221  TIP3      H1              6.9664178156       -4.1695813782      -38.6826235838  TIP3      3121            0.0000000000
     23163      3221  TIP3      H2              7.5633221667       -3.1523353119      -37.7603730779  TIP3      3121            0.0000000000
     23164      3222  TIP3      OH2             7.7018249352        1.5442384890      -25.6026782551  TIP3      3122            0.0000000000
     23165      3222  TIP3      H1              6.8124540401        1.7178207357      -25.9863462383  TIP3      3122            0.0000000000
     23166      3222  TIP3      H2              8.2278153609        1.4821061984      -26.4277410417  TIP3      3122            0.0000000000
     23167      3223  TIP3      OH2             5.5980704339        4.6756474610      -38.1043817193  TIP3      3123            0.0000000000
     23168      3223  TIP3      H1              5.3862154624        3.8154323536      -37.7202929765  TIP3      3123            0.0000000000
     23169      3223  TIP3      H2              6.0619711409        4.4479154139      -38.9375085903  TIP3      3123            0.0000000000
     23170      3224  TIP3      OH2             2.9490573090       -0.6255596978      -30.9355295842  TIP3      3124            0.0000000000
     23171      3224  TIP3      H1              2.0636408662       -0.9385184890      -31.2234328253  TIP3      3124            0.0000000000
     23172      3224  TIP3      H2              3.5335164895       -1.2644893610      -31.3984576841  TIP3      3124            0.0000000000
     23173      3225  TIP3      OH2            -4.6638285785        3.7942866277      -34.7527745164  TIP3      3125            0.0000000000
     23174      3225  TIP3      H1             -4.5543658612        4.7379490102      -34.9929883696  TIP3      3125            0.0000000000
     23175      3225  TIP3      H2             -5.4940235205        3.5930805473      -35.1927427832  TIP3      3125            0.0000000000
     23176      3226  TIP3      OH2            -8.4126943397       -1.7361094494      -40.3275612240  TIP3      3126            0.0000000000
     23177      3226  TIP3      H1             -8.0051367277       -1.0683453655      -39.7468238069  TIP3      3126            0.0000000000
     23178      3226  TIP3      H2             -9.3569583309       -1.6465352213      -40.0915053356  TIP3      3126            0.0000000000
     23179      3227  TIP3      OH2            -3.2463007118        1.4966600708      -35.1003937621  TIP3      3127            0.0000000000
     23180      3227  TIP3      H1             -3.7250405939        2.3499196771      -35.0044420193  TIP3      3127            0.0000000000
     23181      3227  TIP3      H2             -3.8213366343        0.8567908212      -34.6254095101  TIP3      3127            0.0000000000
     23182      3228  TIP3      OH2            -2.5148478957        5.8289474741      -28.3177397413  TIP3      3128            0.0000000000
     23183      3228  TIP3      H1             -1.9242270255        6.4440799498      -28.7967327451  TIP3      3128            0.0000000000
     23184      3228  TIP3      H2             -1.8752890403        5.3325231000      -27.7868823623  TIP3      3128            0.0000000000
     23185      3229  TIP3      OH2            -4.4147916752        6.3688114603      -35.7074224016  TIP3      3129            0.0000000000
     23186      3229  TIP3      H1             -5.3674667727        6.4145515609      -35.4698496949  TIP3      3129            0.0000000000
     23187      3229  TIP3      H2             -4.0832074779        7.1934342630      -35.2996077672  TIP3      3129            0.0000000000
     23188      3230  TIP3      OH2             0.6365767992        1.5571538745      -29.2169562331  TIP3      3130            0.0000000000
     23189      3230  TIP3      H1              0.2815752596        1.2947280089      -28.3316616541  TIP3      3130            0.0000000000
     23190      3230  TIP3      H2              1.0393603611        0.7267930064      -29.5267276851  TIP3      3130            0.0000000000
     23191      3231  TIP3      OH2             3.4113322650        2.5905331181      -40.1793151299  TIP3      3131            0.0000000000
     23192      3231  TIP3      H1              3.3208653978        2.3457392901      -39.2325426304  TIP3      3131            0.0000000000
     23193      3231  TIP3      H2              2.5457591709        2.2881946975      -40.4957670377  TIP3      3131            0.0000000000
     23194      3232  TIP3      OH2             3.7723250187        6.0080370494      -26.4474333615  TIP3      3132            0.0000000000
     23195      3232  TIP3      H1              3.0475014892        5.3522585643      -26.4772549318  TIP3      3132            0.0000000000
     23196      3232  TIP3      H2              3.6671425902        6.4824360521      -27.2979273461  TIP3      3132            0.0000000000
     23197      3233  TIP3      OH2             7.6204276327        7.0094299768      -39.8691789519  TIP3      3133            0.0000000000
     23198      3233  TIP3      H1              8.4418986277        7.5454710375      -39.9355440568  TIP3      3133            0.0000000000
     23199      3233  TIP3      H2              7.0361019787        7.6594913812      -39.4070583508  TIP3      3133            0.0000000000
     23200      3234  TIP3      OH2            -8.0621738334       -6.6226933366      -27.3597723213  TIP3      3134            0.0000000000
     23201      3234  TIP3      H1             -8.6657266246       -6.1275206933      -26.7806941157  TIP3      3134            0.0000000000
     23202      3234  TIP3      H2             -8.3393066764       -7.5312124990      -27.1671714162  TIP3      3134            0.0000000000
     23203      3235  TIP3      OH2             3.9831771269        1.4797481644      -37.6335550826  TIP3      3135            0.0000000000
     23204      3235  TIP3      H1              3.8432270034        0.6838708568      -37.0634346103  TIP3      3135            0.0000000000
     23205      3235  TIP3      H2              4.9615995988        1.4879004353      -37.6596384095  TIP3      3135            0.0000000000
     23206      3236  TIP3      OH2            -8.3883763223        5.2606696229      -28.6264427191  TIP3      3136            0.0000000000
     23207      3236  TIP3      H1             -7.7696198395        4.5156355218      -28.6436706417  TIP3      3136            0.0000000000
     23208      3236  TIP3      H2             -8.1664590706        5.6828042062      -27.7849947978  TIP3      3136            0.0000000000
     23209      3237  TIP3      OH2            -4.0738808734        3.2603339161      -38.9962991440  TIP3      3137            0.0000000000
     23210      3237  TIP3      H1             -3.4771409004        2.7760639193      -38.4057341395  TIP3      3137            0.0000000000
     23211      3237  TIP3      H2             -3.9906428591        4.1896916246      -38.6723679043  TIP3      3137            0.0000000000
     23212      3238  TIP3      OH2            -7.4717910869        0.2836202236      -38.4370535503  TIP3      3138            0.0000000000
     23213      3238  TIP3      H1             -8.2129768237        0.7493013527      -37.9929614475  TIP3      3138            0.0000000000
     23214      3238  TIP3      H2             -7.0392889068        0.9987627385      -38.9339905134  TIP3      3138            0.0000000000
     23215      3239  TIP3      OH2             0.5753040316       -6.7630101229      -27.8934241802  TIP3      3139            0.0000000000
     23216      3239  TIP3      H1              1.4625778888       -6.7570102960      -27.5080799634  TIP3      3139            0.0000000000
     23217      3239  TIP3      H2              0.3045876387       -7.6915709109      -27.7946383914  TIP3      3139            0.0000000000
     23218      3240  TIP3      OH2             1.0504469330       -7.2951041355      -37.1987780205  TIP3      3140            0.0000000000
     23219      3240  TIP3      H1              1.6696375123       -7.0178988053      -37.8936467293  TIP3      3140            0.0000000000
     23220      3240  TIP3      H2              1.5042073958       -6.9989164450      -36.3815538108  TIP3      3140            0.0000000000
     23221      3241  TIP3      OH2            -1.0138922346        5.0312681477      -38.4640097110  TIP3      3141            0.0000000000
     23222      3241  TIP3      H1             -1.7495351577        5.5939212250      -38.1635136568  TIP3      3141            0.0000000000
     23223      3241  TIP3      H2             -0.9614606858        5.2862657957      -39.4092417837  TIP3      3141            0.0000000000
     23224      3242  TIP3      OH2            -1.7744781299       -5.1473313969      -35.9922406670  TIP3      3142            0.0000000000
     23225      3242  TIP3      H1             -1.1019544366       -4.4536032182      -35.8353336566  TIP3      3142            0.0000000000
     23226      3242  TIP3      H2             -1.8572909489       -5.6062994237      -35.1244997235  TIP3      3142            0.0000000000
     23227      3243  TIP3      OH2            -0.4743658401       -4.3026116627      -27.5242358747  TIP3      3143            0.0000000000
     23228      3243  TIP3      H1             -0.4187383839       -4.0239381629      -26.5927966261  TIP3      3143            0.0000000000
     23229      3243  TIP3      H2             -0.2174478376       -5.2514326638      -27.4853500971  TIP3      3143            0.0000000000
     23230      3244  TIP3      OH2            -0.8213245268       -8.5643687124      -35.6698564864  TIP3      3144            0.0000000000
     23231      3244  TIP3      H1             -1.2866926072       -7.8831819950      -35.1468478156  TIP3      3144            0.0000000000
     23232      3244  TIP3      H2             -0.1230462577       -8.0282750910      -36.1281335205  TIP3      3144            0.0000000000
     23233      3245  TIP3      OH2            -3.7609027784        5.9182917056      -38.3355367983  TIP3      3145            0.0000000000
     23234      3245  TIP3      H1             -3.5122271159        6.7521288284      -38.7841398261  TIP3      3145            0.0000000000
     23235      3245  TIP3      H2             -4.0025833682        6.2133064903      -37.4339086546  TIP3      3145            0.0000000000
     23236      3246  TIP3      OH2            -5.0494976669       -6.9612274543      -38.3761820895  TIP3      3146            0.0000000000
     23237      3246  TIP3      H1             -5.0633032369       -6.2786083292      -37.6825890504  TIP3      3146            0.0000000000
     23238      3246  TIP3      H2             -4.2395403043       -7.4625139143      -38.1957711508  TIP3      3146            0.0000000000
     23239      3247  TIP3      OH2             5.0020804967       -6.8984661296      -26.3014386688  TIP3      3147            0.0000000000
     23240      3247  TIP3      H1              4.0968855432       -6.5810212914      -26.4958747346  TIP3      3147            0.0000000000
     23241      3247  TIP3      H2              5.4916275745       -6.6761565785      -27.1227854128  TIP3      3147            0.0000000000
     23242      3248  TIP3      OH2             4.0765426444       -2.7747648825      -32.4054712635  TIP3      3148            0.0000000000
     23243      3248  TIP3      H1              3.3449778229       -3.4247461055      -32.4646404831  TIP3      3148            0.0000000000
     23244      3248  TIP3      H2              4.7855782198       -3.3048787064      -31.9714726077  TIP3      3148            0.0000000000
     23245      3249  TIP3      OH2            -6.6136347434        3.3108546118      -40.0075063613  TIP3      3149            0.0000000000
     23246      3249  TIP3      H1             -5.7712962278        3.3017185252      -39.5066098012  TIP3      3149            0.0000000000
     23247      3249  TIP3      H2             -6.3782147899        2.8633055277      -40.8365490419  TIP3      3149            0.0000000000
     23248      3250  TIP3      OH2            -8.4580279660       -4.3241018844      -40.8501417411  TIP3      3150            0.0000000000
     23249      3250  TIP3      H1             -8.0804294793       -3.5179658233      -40.4472891885  TIP3      3150            0.0000000000
     23250      3250  TIP3      H2             -9.3988332180       -4.0943567385      -40.8163247746  TIP3      3150            0.0000000000
     23251      3251  TIP3      OH2             4.8563088121        6.7238419835      -30.8073475922  TIP3      3151            0.0000000000
     23252      3251  TIP3      H1              4.6404625324        7.5150564678      -31.3510178258  TIP3      3151            0.0000000000
     23253      3251  TIP3      H2              5.7643154514        6.5608163538      -31.1444536359  TIP3      3151            0.0000000000
     23254      3252  TIP3      OH2            -7.7254088463       -9.3233148193      -31.5540025581  TIP3      3152            0.0000000000
     23255      3252  TIP3      H1             -7.8222622200       -9.4782888479      -32.5209153600  TIP3      3152            0.0000000000
     23256      3252  TIP3      H2             -8.0208550139      -10.1955688909      -31.2096190523  TIP3      3152            0.0000000000
     23257      3253  TIP3      OH2            -9.0213771179        4.5741574422      -35.7843506100  TIP3      3153            0.0000000000
     23258      3253  TIP3      H1             -9.8114819511        5.0428292403      -35.4884677095  TIP3      3153            0.0000000000
     23259      3253  TIP3      H2             -9.0059850759        4.8309305206      -36.7265273184  TIP3      3153            0.0000000000
     23260      3254  TIP3      OH2            -9.5796626641        7.1399189540      -24.8149921985  TIP3      3154            0.0000000000
     23261      3254  TIP3      H1             -8.9496916965        6.8919712850      -24.1188357495  TIP3      3154            0.0000000000
     23262      3254  TIP3      H2             -9.9168721635        6.2663320231      -25.1253679929  TIP3      3154            0.0000000000
     23263      3255  TIP3      OH2            -1.0765937885        5.7172949748      -41.0983279460  TIP3      3155            0.0000000000
     23264      3255  TIP3      H1             -1.2043121172        4.8552058693      -41.5167061196  TIP3      3155            0.0000000000
     23265      3255  TIP3      H2             -0.7624936495        6.2477440796      -41.8544254790  TIP3      3155            0.0000000000
     23266      3256  TIP3      OH2             1.3809182434        4.5899483270      -24.0162480521  TIP3      3156            0.0000000000
     23267      3256  TIP3      H1              0.9732821643        3.9092223819      -23.4371800909  TIP3      3156            0.0000000000
     23268      3256  TIP3      H2              2.2707068214        4.6124610549      -23.6021025228  TIP3      3156            0.0000000000
     23269      3257  TIP3      OH2             4.3106229791        5.0944618115      -41.2322016044  TIP3      3157            0.0000000000
     23270      3257  TIP3      H1              3.9404896103        4.4074840780      -40.6445514972  TIP3      3157            0.0000000000
     23271      3257  TIP3      H2              5.2516519650        4.8932997537      -41.0868173783  TIP3      3157            0.0000000000
     23272      3258  TIP3      OH2            -9.5910119805        0.5279510359      -23.6542778687  TIP3      3158            0.0000000000
     23273      3258  TIP3      H1            -10.1789605647       -0.1033865491      -23.2037561239  TIP3      3158            0.0000000000
     23274      3258  TIP3      H2            -10.2539315195        1.0172388128      -24.1746501860  TIP3      3158            0.0000000000
     23275      3259  TIP3      OH2            -4.9948289866        1.1748884575      -41.2317789009  TIP3      3159            0.0000000000
     23276      3259  TIP3      H1             -4.5598134053        0.8555043171      -40.4319602362  TIP3      3159            0.0000000000
     23277      3259  TIP3      H2             -4.4775179717        0.7143202766      -41.9291386157  TIP3      3159            0.0000000000
     23278      3260  TIP3      OH2            -2.7266518071        0.9874920537      -24.3064232021  TIP3      3160            0.0000000000
     23279      3260  TIP3      H1             -2.9226719686        1.5698675288      -25.0764741022  TIP3      3160            0.0000000000
     23280      3260  TIP3      H2             -3.1246464518        0.1271466682      -24.5716743907  TIP3      3160            0.0000000000
     23281      3261  TIP3      OH2             2.8052482203        0.8788454584      -26.5386484581  TIP3      3161            0.0000000000
     23282      3261  TIP3      H1              3.6464218634        1.3861974162      -26.5509541240  TIP3      3161            0.0000000000
     23283      3261  TIP3      H2              2.2166303218        1.6427793893      -26.4021841109  TIP3      3161            0.0000000000
     23284      3262  TIP3      OH2            -9.1171823185       -2.2220422668      -23.4315611067  TIP3      3162            0.0000000000
     23285      3262  TIP3      H1             -8.7990069093       -2.7976392721      -24.1395861005  TIP3      3162            0.0000000000
     23286      3262  TIP3      H2             -8.9362065540       -1.3308114764      -23.7773247816  TIP3      3162            0.0000000000
     23287      3263  TIP3      OH2            -3.9949944931       -0.7392984610      -38.6949674141  TIP3      3163            0.0000000000
     23288      3263  TIP3      H1             -4.6981334687       -1.3224829992      -38.3637994026  TIP3      3163            0.0000000000
     23289      3263  TIP3      H2             -3.5211246894       -1.3209875394      -39.3075272167  TIP3      3163            0.0000000000
     23290      3264  TIP3      OH2            -5.1724379057       -2.8430733015      -27.3859900525  TIP3      3164            0.0000000000
     23291      3264  TIP3      H1             -5.6194115551       -1.9982019667      -27.1477387445  TIP3      3164            0.0000000000
     23292      3264  TIP3      H2             -4.3185559857       -2.5144167215      -27.7366004517  TIP3      3164            0.0000000000
     23293      3265  TIP3      OH2            -2.6702051046       -2.2091315573      -41.0202037628  TIP3      3165            0.0000000000
     23294      3265  TIP3      H1             -2.3586700462       -2.3902866711      -41.9232377648  TIP3      3165            0.0000000000
     23295      3265  TIP3      H2             -1.7877734060       -2.1956696940      -40.5754360954  TIP3      3165            0.0000000000
     23296      3266  TIP3      OH2             0.7489200415       -0.6336082966      -23.0189564500  TIP3      3166            0.0000000000
     23297      3266  TIP3      H1              1.0863822822       -0.6714868708      -23.9271555395  TIP3      3166            0.0000000000
     23298      3266  TIP3      H2              1.4520980833       -1.0935822123      -22.5312512696  TIP3      3166            0.0000000000
     23299      3267  TIP3      OH2             5.8426943378       -0.1658338889      -41.6748594759  TIP3      3167            0.0000000000
     23300      3267  TIP3      H1              5.8032314544       -0.1470367548      -42.6510625437  TIP3      3167            0.0000000000
     23301      3267  TIP3      H2              5.6647767459        0.7607838126      -41.4676665176  TIP3      3167            0.0000000000
     23302      3268  TIP3      OH2            -4.2823196440       -4.8131977050      -25.8617804807  TIP3      3168            0.0000000000
     23303      3268  TIP3      H1             -4.0407656298       -5.5310199991      -26.4727514475  TIP3      3168            0.0000000000
     23304      3268  TIP3      H2             -4.4688370525       -4.0546262289      -26.4601426683  TIP3      3168            0.0000000000
     23305      3269  TIP3      OH2            -3.7331826732       -7.2055998838      -27.7038906798  TIP3      3169            0.0000000000
     23306      3269  TIP3      H1             -3.2313851279       -6.6744756710      -28.3704272772  TIP3      3169            0.0000000000
     23307      3269  TIP3      H2             -4.6172221654       -7.2486615740      -28.1267460333  TIP3      3169            0.0000000000
     23308      3270  TIP3      OH2            -2.6405153059       -1.3601647895      -27.7004266650  TIP3      3170            0.0000000000
     23309      3270  TIP3      H1             -1.7538797727       -0.9627061533      -27.7340311749  TIP3      3170            0.0000000000
     23310      3270  TIP3      H2             -3.1945177566       -0.6205088432      -28.0454816187  TIP3      3170            0.0000000000
     23311      3271  TIP3      OH2             1.8747600595       -3.7689398811      -22.8596327929  TIP3      3171            0.0000000000
     23312      3271  TIP3      H1              2.1904688630       -4.6819730632      -22.8039013326  TIP3      3171            0.0000000000
     23313      3271  TIP3      H2              2.6909141299       -3.2535067468      -22.8811597148  TIP3      3171            0.0000000000
     23314      3272  TIP3      OH2             3.5638169490       -0.9074887724      -24.7046754539  TIP3      3172            0.0000000000
     23315      3272  TIP3      H1              3.2301177019       -0.3661545117      -25.4504039309  TIP3      3172            0.0000000000
     23316      3272  TIP3      H2              4.5298992981       -0.8079482211      -24.8414902943  TIP3      3172            0.0000000000
     23317      3273  TIP3      OH2            -6.3837528985       -4.4700746768      -23.9339687750  TIP3      3173            0.0000000000
     23318      3273  TIP3      H1             -6.9202008328       -5.2906262483      -23.9598146220  TIP3      3173            0.0000000000
     23319      3273  TIP3      H2             -5.7577585118       -4.6163736856      -24.6690900177  TIP3      3173            0.0000000000
     23320      3274  TIP3      OH2            -2.9683306071       -9.7505492658      -27.8314179983  TIP3      3174            0.0000000000
     23321      3274  TIP3      H1             -3.2612400876       -8.8149935319      -27.8293963519  TIP3      3174            0.0000000000
     23322      3274  TIP3      H2             -3.7774682568      -10.1831730115      -28.1688757328  TIP3      3174            0.0000000000
     23323      3275  TIP3      OH2            -1.7992835318       -5.1735565831      -24.1299392434  TIP3      3175            0.0000000000
     23324      3275  TIP3      H1             -1.7385437243       -5.4706503694      -23.1948508007  TIP3      3175            0.0000000000
     23325      3275  TIP3      H2             -2.6775569585       -5.4899809413      -24.3919154780  TIP3      3175            0.0000000000
     23326      3276  TIP3      OH2             0.7287375539       -6.0955634359      -24.7993933088  TIP3      3176            0.0000000000
     23327      3276  TIP3      H1             -0.1460639965       -5.8629344164      -24.4501149880  TIP3      3176            0.0000000000
     23328      3276  TIP3      H2              1.0357735569       -6.7443282309      -24.1335671625  TIP3      3176            0.0000000000
     23329      3277  TIP3      OH2             1.8824545146       -7.6438637076      -22.9944124936  TIP3      3177            0.0000000000
     23330      3277  TIP3      H1              2.0520019470       -8.5921613279      -23.1968479694  TIP3      3177            0.0000000000
     23331      3277  TIP3      H2              2.6618334632       -7.4560129583      -22.4446001986  TIP3      3177            0.0000000000
     23332      3278  TIP3      OH2            -7.9938014625       -6.6731789022      -23.5540794153  TIP3      3178            0.0000000000
     23333      3278  TIP3      H1             -8.1017110209       -7.4575430871      -24.1408158614  TIP3      3178            0.0000000000
     23334      3278  TIP3      H2             -8.3876535540       -6.9774623751      -22.7207659417  TIP3      3178            0.0000000000
     23335      3279  TIP3      OH2            -3.1848037924      -10.4423628044      -25.0520584318  TIP3      3179            0.0000000000
     23336      3279  TIP3      H1             -2.4014689925      -11.0144282651      -25.1237753045  TIP3      3179            0.0000000000
     23337      3279  TIP3      H2             -3.1333587788       -9.9985758462      -25.9214790540  TIP3      3179            0.0000000000
     23338      3280  TIP3      OH2            -3.2297514359        8.3063393423      -39.9168182082  TIP3      3180            0.0000000000
     23339      3280  TIP3      H1             -2.3001627714        8.5535903691      -39.7365606067  TIP3      3180            0.0000000000
     23340      3280  TIP3      H2             -3.2132159927        8.2657772970      -40.8951051938  TIP3      3180            0.0000000000
     23341      3281  TIP3      OH2            -9.6008587770        3.0195054600      -40.2369165604  TIP3      3181            0.0000000000
     23342      3281  TIP3      H1             -8.7502400281        3.4759291830      -40.1223733561  TIP3      3181            0.0000000000
     23343      3281  TIP3      H2             -9.4720053546        2.6771921750      -41.1454376008  TIP3      3181            0.0000000000
     23344      3282  TIP3      OH2           -10.2683826882        7.6602713836      -35.4775078793  TIP3      3182            0.0000000000
     23345      3282  TIP3      H1            -11.1959053184        7.4084946423      -35.6979300496  TIP3      3182            0.0000000000
     23346      3282  TIP3      H2            -10.1323930850        7.1707441477      -34.6384675763  TIP3      3182            0.0000000000
     23347      3283  TIP3      OH2            -9.8740712710        6.1437536566      -33.2223994912  TIP3      3183            0.0000000000
     23348      3283  TIP3      H1            -10.5600802665        5.6608301354      -32.7326807147  TIP3      3183            0.0000000000
     23349      3283  TIP3      H2             -9.2565760802        6.4018988308      -32.5119104353  TIP3      3183            0.0000000000
     23350      3284  TIP3      OH2             7.5133860764        6.9017764465      -31.0505163994  TIP3      3184            0.0000000000
     23351      3284  TIP3      H1              7.8920186878        6.9275109129      -30.1619525837  TIP3      3184            0.0000000000
     23352      3284  TIP3      H2              7.8763352203        7.7187324356      -31.4365393719  TIP3      3184            0.0000000000
     23353      3285  TIP3      OH2             7.2582865404        6.5014818441      -27.5068937373  TIP3      3185            0.0000000000
     23354      3285  TIP3      H1              6.9309257727        5.8363124702      -28.1470349707  TIP3      3185            0.0000000000
     23355      3285  TIP3      H2              7.4942731090        5.9044534123      -26.7739414024  TIP3      3185            0.0000000000
     23356      3286  TIP3      OH2             5.5013011666        2.2743656769      -22.8094899314  TIP3      3186            0.0000000000
     23357      3286  TIP3      H1              4.5495939672        2.1535880111      -22.9596817086  TIP3      3186            0.0000000000
     23358      3286  TIP3      H2              5.6512517710        3.0693573066      -23.3427494794  TIP3      3186            0.0000000000
     23359      3287  TIP3      OH2             6.6317654568        0.8723483521      -37.6347895090  TIP3      3187            0.0000000000
     23360      3287  TIP3      H1              7.5735538239        1.1401495593      -37.4915231678  TIP3      3187            0.0000000000
     23361      3287  TIP3      H2              6.5044648376        0.2173838852      -36.9183402538  TIP3      3187            0.0000000000
     23362      3288  TIP3      OH2             7.3905435773       -1.3882071512      -35.5562234471  TIP3      3188            0.0000000000
     23363      3288  TIP3      H1              6.6585259496       -1.7978312440      -35.0332448396  TIP3      3188            0.0000000000
     23364      3288  TIP3      H2              7.9853820043       -1.0725937510      -34.8486221225  TIP3      3188            0.0000000000
     23365      3289  TIP3      OH2             6.9823924089        1.4760834355      -30.6279760575  TIP3      3189            0.0000000000
     23366      3289  TIP3      H1              7.6770141585        0.8862660953      -30.9762844388  TIP3      3189            0.0000000000
     23367      3289  TIP3      H2              7.4088928303        2.3585616441      -30.7040424516  TIP3      3189            0.0000000000
     23368      3290  TIP3      OH2             5.6909444831        4.2821445544      -28.4300430591  TIP3      3190            0.0000000000
     23369      3290  TIP3      H1              5.0719692576        4.9597277167      -28.1158908279  TIP3      3190            0.0000000000
     23370      3290  TIP3      H2              5.3250915630        4.0486650590      -29.3136168476  TIP3      3190            0.0000000000
     23371      3291  TIP3      OH2             7.6354049731       -1.5335293686      -38.9271911248  TIP3      3191            0.0000000000
     23372      3291  TIP3      H1              6.8035636376       -1.6796743566      -39.4088450245  TIP3      3191            0.0000000000
     23373      3291  TIP3      H2              7.4854068588       -0.6642479335      -38.5133303886  TIP3      3191            0.0000000000
     23374      3292  TIP3      OH2             6.6055148510       -4.2478255457      -40.7764105151  TIP3      3192            0.0000000000
     23375      3292  TIP3      H1              6.3959216203       -3.6974762824      -41.5385133031  TIP3      3192            0.0000000000
     23376      3292  TIP3      H2              6.3802773906       -5.1210828608      -41.1519404582  TIP3      3192            0.0000000000
     23377      3293  TIP3      OH2             5.3540189497       -2.8411121318      -34.6885207128  TIP3      3193            0.0000000000
     23378      3293  TIP3      H1              4.8327268354       -3.6408695446      -34.8217124409  TIP3      3193            0.0000000000
     23379      3293  TIP3      H2              4.9902917071       -2.5952774808      -33.8063120355  TIP3      3193            0.0000000000
     23380      3294  TIP3      OH2            -9.8217454488       -0.3042985350      -30.7339172028  TIP3      3194            0.0000000000
     23381      3294  TIP3      H1             -9.8447903022       -0.6697834999      -31.6543172016  TIP3      3194            0.0000000000
     23382      3294  TIP3      H2             -8.9161900688       -0.5908575313      -30.4678577740  TIP3      3194            0.0000000000
     23383      3295  TIP3      OH2             6.2889866116       -0.6432883298      -25.0552788120  TIP3      3195            0.0000000000
     23384      3295  TIP3      H1              6.8165821097       -1.4581663919      -25.0117406311  TIP3      3195            0.0000000000
     23385      3295  TIP3      H2              6.9497839724        0.0704682025      -25.2067936667  TIP3      3195            0.0000000000
     23386      3296  TIP3      OH2             7.4276156530       -3.3395540169      -25.2093910909  TIP3      3196            0.0000000000
     23387      3296  TIP3      H1              6.5096990501       -3.6739238211      -25.2996235037  TIP3      3196            0.0000000000
     23388      3296  TIP3      H2              7.8677195979       -4.1273602809      -24.8292407257  TIP3      3196            0.0000000000
     23389      3297  TIP3      OH2             5.2980500413       -6.7038024579      -41.6859838372  TIP3      3197            0.0000000000
     23390      3297  TIP3      H1              5.9498445861       -7.2130266481      -41.1664287320  TIP3      3197            0.0000000000
     23391      3297  TIP3      H2              4.4680695208       -6.9030585632      -41.2312325691  TIP3      3197            0.0000000000
     23392      3298  TIP3      OH2             4.1873002196       -4.8206848563      -36.3025457811  TIP3      3198            0.0000000000
     23393      3298  TIP3      H1              4.5441949211       -5.7328374184      -36.2245131227  TIP3      3198            0.0000000000
     23394      3298  TIP3      H2              5.0220297318       -4.3640042955      -36.4876293337  TIP3      3198            0.0000000000
     23395      3299  TIP3      OH2             5.8940573342       -4.3005813678      -31.1453096680  TIP3      3199            0.0000000000
     23396      3299  TIP3      H1              6.8572242176       -4.3628146143      -30.9312147224  TIP3      3199            0.0000000000
     23397      3299  TIP3      H2              5.6234512865       -4.0746207156      -30.2329920876  TIP3      3199            0.0000000000
     23398      3300  TIP3      OH2             5.6240920108       -3.7095258113      -28.5825204133  TIP3      3200            0.0000000000
     23399      3300  TIP3      H1              4.7535563556       -3.4692089467      -28.2056649052  TIP3      3200            0.0000000000
     23400      3300  TIP3      H2              6.0668934424       -2.8341972197      -28.6646092447  TIP3      3200            0.0000000000
     23401      3301  TIP3      OH2           -10.1333609880       -5.4223014163      -24.6608518608  TIP3      3201            0.0000000000
     23402      3301  TIP3      H1             -9.3817180077       -5.6398071090      -24.0708676579  TIP3      3201            0.0000000000
     23403      3301  TIP3      H2            -10.5570040300       -6.3071323512      -24.7122251983  TIP3      3201            0.0000000000
     23404      3302  TIP3      OH2             7.4888463485       -9.5240829778      -23.1393107483  TIP3      3202            0.0000000000
     23405      3302  TIP3      H1              7.9231474230      -10.2517132358      -23.6162765946  TIP3      3202            0.0000000000
     23406      3302  TIP3      H2              7.9486765583       -8.7591956722      -23.5388434800  TIP3      3202            0.0000000000
     23407      3303  TIP3      OH2             5.0861491020       -7.6105738519      -36.0868625174  TIP3      3203            0.0000000000
     23408      3303  TIP3      H1              5.7156409186       -8.0664913566      -35.4979148935  TIP3      3203            0.0000000000
     23409      3303  TIP3      H2              4.7117450613       -8.3635059377      -36.5729273765  TIP3      3203            0.0000000000
     23410      3304  TIP3      OH2            -9.1872766454       -7.0830598845      -31.2828398874  TIP3      3204            0.0000000000
     23411      3304  TIP3      H1             -8.7439515306       -7.9573092448      -31.3753241889  TIP3      3204            0.0000000000
     23412      3304  TIP3      H2             -8.4289960386       -6.4809521894      -31.1993144220  TIP3      3204            0.0000000000
     23413      3305  TIP3      OH2           -10.3841164071       -4.0581197613      -30.4984650305  TIP3      3205            0.0000000000
     23414      3305  TIP3      H1             -9.8784862767       -4.3209153997      -31.2970442791  TIP3      3205            0.0000000000
     23415      3305  TIP3      H2             -9.8424270157       -3.3248405107      -30.1873895818  TIP3      3205            0.0000000000
     23416      3306  TIP3      OH2             7.4446466096       -7.8034972123      -25.2481664042  TIP3      3206            0.0000000000
     23417      3306  TIP3      H1              6.5846262611       -7.3508855634      -25.2330372174  TIP3      3206            0.0000000000
     23418      3306  TIP3      H2              7.1326129804       -8.6425837645      -25.6428310852  TIP3      3206            0.0000000000
     23419      3307  TIP3      OH2             7.1463660095       -7.4840484439      -39.8782304280  TIP3      3207            0.0000000000
     23420      3307  TIP3      H1              7.5833603861       -7.5222816886      -40.7564278448  TIP3      3207            0.0000000000
     23421      3307  TIP3      H2              7.7830281612       -6.8873930196      -39.4399046104  TIP3      3207            0.0000000000
     23422      3308  TIP3      OH2           -10.4076086892       -7.7720851815      -36.6437516125  TIP3      3208            0.0000000000
     23423      3308  TIP3      H1            -11.3234436991       -7.5085923642      -36.7741652752  TIP3      3208            0.0000000000
     23424      3308  TIP3      H2            -10.0139309206       -7.4891108311      -37.4893379191  TIP3      3208            0.0000000000
     23425      3309  TIP3      OH2             4.4874562688        7.0871504086      -34.5715687138  TIP3      3209            0.0000000000
     23426      3309  TIP3      H1              5.1762434540        6.9837946582      -35.2656626782  TIP3      3209            0.0000000000
     23427      3309  TIP3      H2              4.8707178225        7.7609576919      -34.0013198583  TIP3      3209            0.0000000000
     23428      3310  TIP3      OH2           -10.4687851645       -9.2433253769      -28.5125244242  TIP3      3210            0.0000000000
     23429      3310  TIP3      H1            -11.1082809592       -9.6122854973      -27.8825350901  TIP3      3210            0.0000000000
     23430      3310  TIP3      H2            -10.9714952528       -8.5636165674      -29.0086389219  TIP3      3210            0.0000000000
     23431      3311  TIP3      OH2            -7.8356079384        3.6422311444      -24.0608831044  TIP3      3211            0.0000000000
     23432      3311  TIP3      H1             -8.6070613894        3.2160064512      -24.4651475026  TIP3      3211            0.0000000000
     23433      3311  TIP3      H2             -7.4652589245        2.8993253508      -23.5574076132  TIP3      3211            0.0000000000
     23434      3312  TIP3      OH2            -5.1995674208        5.5303428322      -27.8316880878  TIP3      3212            0.0000000000
     23435      3312  TIP3      H1             -5.1932695490        6.4500236520      -28.1832716679  TIP3      3212            0.0000000000
     23436      3312  TIP3      H2             -4.2406881741        5.3394098424      -27.8826407238  TIP3      3212            0.0000000000
     23437      3313  TIP3      OH2            -1.1403214865        6.3781539885      -25.2583470836  TIP3      3213            0.0000000000
     23438      3313  TIP3      H1             -0.8999920440        5.8168339856      -24.5060723993  TIP3      3213            0.0000000000
     23439      3313  TIP3      H2             -0.3444066439        6.9458523148      -25.3643013311  TIP3      3213            0.0000000000
     23440      3314  TIP3      OH2             1.0002138110        8.0301243825      -25.5945112403  TIP3      3214            0.0000000000
     23441      3314  TIP3      H1              1.8124637771        7.6191071357      -25.9434871645  TIP3      3214            0.0000000000
     23442      3314  TIP3      H2              1.3217652220        8.3333482353      -24.7186177627  TIP3      3214            0.0000000000
     23443      3315  TIP3      OH2             6.3290849391       -9.9125072018      -26.6468376348  TIP3      3215            0.0000000000
     23444      3315  TIP3      H1              5.5764740538       -9.5886786757      -27.1731244884  TIP3      3215            0.0000000000
     23445      3315  TIP3      H2              6.3868990094      -10.8534914345      -26.9478841353  TIP3      3215            0.0000000000
     23446      3316  TIP3      OH2            -7.8630514888        8.5251769527      -27.9075413395  TIP3      3216            0.0000000000
     23447      3316  TIP3      H1             -8.5447402370        9.0134460145      -28.4058087911  TIP3      3216            0.0000000000
     23448      3316  TIP3      H2             -8.3922274659        8.2904560362      -27.1310175929  TIP3      3216            0.0000000000
     23449      3317  TIP3      OH2            -5.4881851181        7.9201878194      -29.1014335552  TIP3      3217            0.0000000000
     23450      3317  TIP3      H1             -6.3440267875        8.0977322641      -28.6412635368  TIP3      3217            0.0000000000
     23451      3317  TIP3      H2             -5.5311504577        8.5528145535      -29.8397409034  TIP3      3217            0.0000000000
     23452      3318  TIP3      OH2            -0.8467319265        7.6235971656      -29.8516077618  TIP3      3218            0.0000000000
     23453      3318  TIP3      H1             -1.4968398873        8.2342678820      -30.2390533922  TIP3      3218            0.0000000000
     23454      3318  TIP3      H2             -0.5186589564        8.1873093982      -29.1162655645  TIP3      3218            0.0000000000
     23455      3319  TIP3      OH2             1.3458013032        6.2786629603      -28.4972478327  TIP3      3219            0.0000000000
     23456      3319  TIP3      H1              0.7839109877        6.7552948847      -29.1358401180  TIP3      3219            0.0000000000
     23457      3319  TIP3      H2              2.1243995518        6.8725210946      -28.5026468355  TIP3      3219            0.0000000000
     23458      3320  TIP3      OH2             3.5771410447        7.7415465744      -28.6222135264  TIP3      3220            0.0000000000
     23459      3320  TIP3      H1              3.5460331409        8.7057155373      -28.7219898372  TIP3      3220            0.0000000000
     23460      3320  TIP3      H2              4.0109303226        7.4609784728      -29.4604347128  TIP3      3220            0.0000000000
     23461      3321  TIP3      OH2            -8.2139560256        6.8143519747      -30.9742354100  TIP3      3221            0.0000000000
     23462      3321  TIP3      H1             -8.3589438177        6.3249957468      -30.1282069488  TIP3      3221            0.0000000000
     23463      3321  TIP3      H2             -7.3151046005        6.4900765741      -31.2252525524  TIP3      3221            0.0000000000
     23464      3322  TIP3      OH2            -6.0207389645        5.7391817248      -32.2515382763  TIP3      3222            0.0000000000
     23465      3322  TIP3      H1             -6.1224592993        4.7955855594      -32.0027934668  TIP3      3222            0.0000000000
     23466      3322  TIP3      H2             -5.1514295750        5.8982680668      -31.8103736814  TIP3      3222            0.0000000000
     23467      3323  TIP3      OH2            -3.8605093154        5.6636535178      -30.8278893828  TIP3      3223            0.0000000000
     23468      3323  TIP3      H1             -3.3743368668        4.8556696360      -31.0577623209  TIP3      3223            0.0000000000
     23469      3323  TIP3      H2             -3.7559173579        5.7040977018      -29.8604256307  TIP3      3223            0.0000000000
     23470      3324  TIP3      OH2            -0.2453430140       -8.4542652489      -32.4160701595  TIP3      3224            0.0000000000
     23471      3324  TIP3      H1             -0.9855568269       -8.6553099478      -31.8275348744  TIP3      3224            0.0000000000
     23472      3324  TIP3      H2             -0.4470114584       -9.0416882165      -33.1526123318  TIP3      3224            0.0000000000
     23473      3325  TIP3      OH2             5.1068448929      -10.3480223837      -32.4154820218  TIP3      3225            0.0000000000
     23474      3325  TIP3      H1              5.6199887949       -9.7682427353      -33.0207548282  TIP3      3225            0.0000000000
     23475      3325  TIP3      H2              4.1829162411      -10.0632763386      -32.6224427195  TIP3      3225            0.0000000000
     23476      3326  TIP3      OH2             6.5993162317       -9.2779302709      -34.4043752664  TIP3      3226            0.0000000000
     23477      3326  TIP3      H1              7.3219608998       -9.7795471176      -34.8375836454  TIP3      3226            0.0000000000
     23478      3326  TIP3      H2              7.0753391924       -8.4341448644      -34.1630020973  TIP3      3226            0.0000000000
     23479      3327  TIP3      OH2            -7.9820354010       -9.9008855814      -34.2334290037  TIP3      3227            0.0000000000
     23480      3327  TIP3      H1             -8.7261127361       -9.9750253747      -34.8630142466  TIP3      3227            0.0000000000
     23481      3327  TIP3      H2             -7.4391546671      -10.6786799789      -34.4854738894  TIP3      3227            0.0000000000
     23482      3328  TIP3      OH2            -8.9837175685      -10.0100768793      -39.0156133024  TIP3      3228            0.0000000000
     23483      3328  TIP3      H1             -8.6779868903       -9.2419658236      -39.5456974606  TIP3      3228            0.0000000000
     23484      3328  TIP3      H2             -9.7165454834       -9.6345525039      -38.5095898894  TIP3      3228            0.0000000000
     23485      3329  TIP3      OH2            -3.6653816043      -10.0244545734      -34.6397160456  TIP3      3229            0.0000000000
     23486      3329  TIP3      H1             -2.7272167774      -10.0741628595      -34.8817540775  TIP3      3229            0.0000000000
     23487      3329  TIP3      H2             -3.6672141594       -9.5818840837      -33.7750393565  TIP3      3229            0.0000000000
     23488      3330  TIP3      OH2             2.6494784441       -9.8227777117      -33.3405555725  TIP3      3230            0.0000000000
     23489      3330  TIP3      H1              2.1200806175       -9.3440767060      -33.9857371450  TIP3      3230            0.0000000000
     23490      3330  TIP3      H2              2.0121663797      -10.5286456471      -33.0686906951  TIP3      3230            0.0000000000
     23491      3331  TIP3      OH2             3.8139674878       -9.7545810253      -37.6503860302  TIP3      3231            0.0000000000
     23492      3331  TIP3      H1              3.1197785526       -9.4755538356      -38.2700280281  TIP3      3231            0.0000000000
     23493      3331  TIP3      H2              3.3692339093      -10.4900667876      -37.1800068468  TIP3      3231            0.0000000000
     23494      3332  TIP3      OH2            -9.3867180553        5.9949871240      -38.1352439583  TIP3      3232            0.0000000000
     23495      3332  TIP3      H1            -10.1466236018        6.1184462631      -38.7353073452  TIP3      3232            0.0000000000
     23496      3332  TIP3      H2             -9.4183363877        6.8710733231      -37.7293584005  TIP3      3232            0.0000000000
     23497      3333  TIP3      OH2            -7.7764597235       -7.7667239108      -40.1989975730  TIP3      3233            0.0000000000
     23498      3333  TIP3      H1             -7.5588926536       -8.1536130317      -41.0567610389  TIP3      3233            0.0000000000
     23499      3333  TIP3      H2             -7.0049918291       -7.2004211440      -40.0333691809  TIP3      3233            0.0000000000
     23500      3334  TIP3      OH2            -1.9521122186       -7.3524899611      -38.0559805862  TIP3      3234            0.0000000000
     23501      3334  TIP3      H1             -1.6700799189       -7.9991856998      -37.3879651625  TIP3      3234            0.0000000000
     23502      3334  TIP3      H2             -1.9341799547       -6.5367531006      -37.5195636955  TIP3      3234            0.0000000000
     23503      3335  TIP3      OH2            -0.4265728062        8.0380593183      -39.7949775537  TIP3      3235            0.0000000000
     23504      3335  TIP3      H1              0.5351172783        7.8497000964      -39.8670354988  TIP3      3235            0.0000000000
     23505      3335  TIP3      H2             -0.7606572718        7.2044985923      -40.1842234910  TIP3      3235            0.0000000000
     23506      3336  TIP3      OH2             6.1889496537        6.7770179017      -36.6193468766  TIP3      3236            0.0000000000
     23507      3336  TIP3      H1              6.0364681775        6.0155683425      -37.2280685676  TIP3      3236            0.0000000000
     23508      3336  TIP3      H2              6.1115069118        7.5315196932      -37.2326609745  TIP3      3236            0.0000000000
     23509      3337  TIP3      OH2            -8.2866947653       -9.0233145636      -25.1260187071  TIP3      3237            0.0000000000
     23510      3337  TIP3      H1             -8.7722685830       -9.8678720864      -25.0428555714  TIP3      3237            0.0000000000
     23511      3337  TIP3      H2             -7.4304267367       -9.2591557493      -24.7058809525  TIP3      3237            0.0000000000
     23512      3338  TIP3      OH2            -5.9216845696       -9.5457490580      -23.5276343940  TIP3      3238            0.0000000000
     23513      3338  TIP3      H1             -5.0615676354       -9.8864953717      -23.8281409892  TIP3      3238            0.0000000000
     23514      3338  TIP3      H2             -6.2747799403      -10.3137833416      -23.0550947519  TIP3      3238            0.0000000000
     23515      3339  TIP3      OH2            -7.2143449771        7.6408690210      -40.6091789850  TIP3      3239            0.0000000000
     23516      3339  TIP3      H1             -8.1595491467        7.8779686767      -40.6001619888  TIP3      3239            0.0000000000
     23517      3339  TIP3      H2             -7.2560390074        6.7406915456      -40.2719380153  TIP3      3239            0.0000000000
     23518      3340  TIP3      OH2             2.3708090975      -10.3004199473      -23.2496270737  TIP3      3240            0.0000000000
     23519      3340  TIP3      H1              2.4092535020      -10.5859805630      -22.3169023185  TIP3      3240            0.0000000000
     23520      3340  TIP3      H2              3.2671372009      -10.6011836435      -23.5151290190  TIP3      3240            0.0000000000
     23521      3341  TIP3      OH2             5.8601893664        5.7382222260      -24.8015979129  TIP3      3241            0.0000000000
     23522      3341  TIP3      H1              5.0666724805        5.5177514742      -25.3368555096  TIP3      3241            0.0000000000
     23523      3341  TIP3      H2              5.6787854584        6.6959788317      -24.7001416083  TIP3      3241            0.0000000000
     23524      3342  TIP3      OH2            20.5399161752       -0.3093534746      -34.6363390300  TIP3      3242            0.0000000000
     23525      3342  TIP3      H1             20.5224058994        0.4306157369      -33.9947878876  TIP3      3242            0.0000000000
     23526      3342  TIP3      H2             19.8801658499       -0.0131226785      -35.2857380740  TIP3      3242            0.0000000000
     23527      3343  TIP3      OH2            18.9591062450       -1.4070448826      -31.3878296386  TIP3      3243            0.0000000000
     23528      3343  TIP3      H1             19.0617482010       -1.9007689384      -30.5441083518  TIP3      3243            0.0000000000
     23529      3343  TIP3      H2             18.1872233679       -1.7907366891      -31.8201023770  TIP3      3243            0.0000000000
     23530      3344  TIP3      OH2            11.1193198934       -1.5144497320      -29.5759748413  TIP3      3244            0.0000000000
     23531      3344  TIP3      H1             10.9903941897       -2.4058760234      -29.1822133246  TIP3      3244            0.0000000000
     23532      3344  TIP3      H2             12.0318644098       -1.3117800724      -29.3222873013  TIP3      3244            0.0000000000
     23533      3345  TIP3      OH2            22.0299394725        1.4384925188      -32.8572151551  TIP3      3245            0.0000000000
     23534      3345  TIP3      H1             21.9710461614        0.7821544281      -32.1418752568  TIP3      3245            0.0000000000
     23535      3345  TIP3      H2             22.3336995633        2.2336848124      -32.3770672226  TIP3      3245            0.0000000000
     23536      3346  TIP3      OH2            12.2631733508        3.2462111708      -31.3214373522  TIP3      3246            0.0000000000
     23537      3346  TIP3      H1             11.9007110781        2.3655238975      -31.5466469884  TIP3      3246            0.0000000000
     23538      3346  TIP3      H2             13.2119462994        3.0820325319      -31.4951853806  TIP3      3246            0.0000000000
     23539      3347  TIP3      OH2             8.9289029407       -3.8893661162      -35.4347816657  TIP3      3247            0.0000000000
     23540      3347  TIP3      H1              8.5997904350       -2.9753515753      -35.4945586656  TIP3      3247            0.0000000000
     23541      3347  TIP3      H2              8.1363449093       -4.3368597318      -35.7782035417  TIP3      3247            0.0000000000
     23542      3348  TIP3      OH2             9.1303759338       -1.2743380755      -33.2622305118  TIP3      3248            0.0000000000
     23543      3348  TIP3      H1              9.4757903040       -2.1948049187      -33.2043572023  TIP3      3248            0.0000000000
     23544      3348  TIP3      H2              9.9084130364       -0.7920203373      -33.5803878648  TIP3      3248            0.0000000000
     23545      3349  TIP3      OH2            19.7443127121        6.9884767472      -32.8503703521  TIP3      3249            0.0000000000
     23546      3349  TIP3      H1             20.3622315514        6.3800698893      -33.3136379035  TIP3      3249            0.0000000000
     23547      3349  TIP3      H2             19.5324567037        6.4192379917      -32.1020516867  TIP3      3249            0.0000000000
     23548      3350  TIP3      OH2            17.0583280785        0.8617363719      -30.2563287873  TIP3      3250            0.0000000000
     23549      3350  TIP3      H1             17.4041785559        0.7454013930      -31.1519101382  TIP3      3250            0.0000000000
     23550      3350  TIP3      H2             17.8580852404        1.1983232258      -29.7965643986  TIP3      3250            0.0000000000
     23551      3351  TIP3      OH2            25.5670394565       -6.8521138970      -30.4075720117  TIP3      3251            0.0000000000
     23552      3351  TIP3      H1             25.7156997015       -6.3057935116      -29.6046791487  TIP3      3251            0.0000000000
     23553      3351  TIP3      H2             26.4223798048       -6.7378290563      -30.8599113005  TIP3      3251            0.0000000000
     23554      3352  TIP3      OH2            20.6980940435       -4.2983283735      -30.1661680757  TIP3      3252            0.0000000000
     23555      3352  TIP3      H1             20.9831752491       -5.1140685401      -29.7195456736  TIP3      3252            0.0000000000
     23556      3352  TIP3      H2             20.6163912949       -4.6467607690      -31.0724463568  TIP3      3252            0.0000000000
     23557      3353  TIP3      OH2            13.3390081227       -6.4299805978      -33.5066779167  TIP3      3253            0.0000000000
     23558      3353  TIP3      H1             13.7477470396       -5.6201805356      -33.8850342600  TIP3      3253            0.0000000000
     23559      3353  TIP3      H2             12.9468936625       -6.8430914285      -34.3100403195  TIP3      3253            0.0000000000
     23560      3354  TIP3      OH2            21.0848496820       -6.3318362627      -34.7959381733  TIP3      3254            0.0000000000
     23561      3354  TIP3      H1             21.6975197990       -6.5984563151      -34.0654776924  TIP3      3254            0.0000000000
     23562      3354  TIP3      H2             21.5102548352       -5.5184463618      -35.0931740710  TIP3      3254            0.0000000000
     23563      3355  TIP3      OH2            10.1883103644       -3.6861723912      -32.5341264909  TIP3      3255            0.0000000000
     23564      3355  TIP3      H1             10.8594764942       -4.0578413852      -31.9306899094  TIP3      3255            0.0000000000
     23565      3355  TIP3      H2             10.4783190573       -4.0496679655      -33.3918912068  TIP3      3255            0.0000000000
     23566      3356  TIP3      OH2            15.0551606094       -1.9654166970      -32.8621038483  TIP3      3256            0.0000000000
     23567      3356  TIP3      H1             15.8163120608       -2.4979206216      -32.5780065440  TIP3      3256            0.0000000000
     23568      3356  TIP3      H2             14.6946443362       -2.6309272834      -33.4838675719  TIP3      3256            0.0000000000
     23569      3357  TIP3      OH2            25.9769049136       -5.6865420938      -27.9669878405  TIP3      3257            0.0000000000
     23570      3357  TIP3      H1             25.2951077697       -4.9688078710      -28.0158080575  TIP3      3257            0.0000000000
     23571      3357  TIP3      H2             26.6669558354       -5.2040813721      -27.5020742201  TIP3      3257            0.0000000000
     23572      3358  TIP3      OH2            12.5819334102       -7.4186864989      -29.2557444123  TIP3      3258            0.0000000000
     23573      3358  TIP3      H1             12.2254791264       -6.8973334788      -30.0074055143  TIP3      3258            0.0000000000
     23574      3358  TIP3      H2             11.9318338404       -7.2068063043      -28.5534576975  TIP3      3258            0.0000000000
     23575      3359  TIP3      OH2            19.3070600769        2.1528128637      -35.7091229834  TIP3      3259            0.0000000000
     23576      3359  TIP3      H1             19.1947357100        2.2235833887      -36.6837788569  TIP3      3259            0.0000000000
     23577      3359  TIP3      H2             19.1626505541        3.0869847085      -35.4590541698  TIP3      3259            0.0000000000
     23578      3360  TIP3      OH2            14.6772350052        0.2750575401      -29.0483568058  TIP3      3260            0.0000000000
     23579      3360  TIP3      H1             14.1181953452        1.0169285849      -28.7200108113  TIP3      3260            0.0000000000
     23580      3360  TIP3      H2             15.3709518951        0.7645542622      -29.5464912048  TIP3      3260            0.0000000000
     23581      3361  TIP3      OH2            23.0275138979       -6.5508518536      -32.9712590324  TIP3      3261            0.0000000000
     23582      3361  TIP3      H1             23.2400519116       -7.2064789867      -32.2973744946  TIP3      3261            0.0000000000
     23583      3361  TIP3      H2             23.4658069271       -5.7561630703      -32.6193282634  TIP3      3261            0.0000000000
     23584      3362  TIP3      OH2            12.1856129362       -5.4267963246      -31.1577883655  TIP3      3262            0.0000000000
     23585      3362  TIP3      H1             12.8541057458       -4.8349855957      -30.7336784407  TIP3      3262            0.0000000000
     23586      3362  TIP3      H2             12.6424889371       -5.6645598180      -31.9958505701  TIP3      3262            0.0000000000
     23587      3363  TIP3      OH2            13.5551934282        2.6821857392      -28.3795661681  TIP3      3263            0.0000000000
     23588      3363  TIP3      H1             13.3537091444        3.5512966853      -28.7718995669  TIP3      3263            0.0000000000
     23589      3363  TIP3      H2             12.7093562288        2.4918319118      -27.9068181973  TIP3      3263            0.0000000000
     23590      3364  TIP3      OH2             9.2340762985        1.7080928937      -37.5671505934  TIP3      3264            0.0000000000
     23591      3364  TIP3      H1              9.2500112492        2.1528512605      -38.4424495122  TIP3      3264            0.0000000000
     23592      3364  TIP3      H2              9.3437239785        2.4939952565      -36.9751856554  TIP3      3264            0.0000000000
     23593      3365  TIP3      OH2            22.9500062366        3.6055982782      -31.1711710226  TIP3      3265            0.0000000000
     23594      3365  TIP3      H1             22.0721683535        3.8531811983      -30.8059665415  TIP3      3265            0.0000000000
     23595      3365  TIP3      H2             23.2840540283        4.4856992871      -31.4008297239  TIP3      3265            0.0000000000
     23596      3366  TIP3      OH2            22.9114843896       -7.9241524977      -29.5668224323  TIP3      3266            0.0000000000
     23597      3366  TIP3      H1             22.1594583801       -7.4816063488      -30.0101390091  TIP3      3266            0.0000000000
     23598      3366  TIP3      H2             23.6777333958       -7.4339610085      -29.9097758758  TIP3      3266            0.0000000000
     23599      3367  TIP3      OH2            15.9390770173      -10.3845287944      -31.2743303739  TIP3      3267            0.0000000000
     23600      3367  TIP3      H1             15.5195138389      -11.2225332736      -31.5542504913  TIP3      3267            0.0000000000
     23601      3367  TIP3      H2             15.1674029653       -9.9324828680      -30.8680000802  TIP3      3267            0.0000000000
     23602      3368  TIP3      OH2            21.2962036804        5.3605506018      -34.2262103016  TIP3      3268            0.0000000000
     23603      3368  TIP3      H1             21.5717274026        4.5477120648      -34.7097119475  TIP3      3268            0.0000000000
     23604      3368  TIP3      H2             22.0021146356        5.9922281959      -34.5064720430  TIP3      3268            0.0000000000
     23605      3369  TIP3      OH2            22.3388154980        3.2168508968      -35.4665219233  TIP3      3269            0.0000000000
     23606      3369  TIP3      H1             22.3981579772        2.6038698652      -36.2265841220  TIP3      3269            0.0000000000
     23607      3369  TIP3      H2             22.3691274907        2.5939890119      -34.7229542693  TIP3      3269            0.0000000000
     23608      3370  TIP3      OH2            24.0539228405        1.9706264639      -27.0219104888  TIP3      3270            0.0000000000
     23609      3370  TIP3      H1             24.2377429882        1.2472856959      -27.6630338258  TIP3      3270            0.0000000000
     23610      3370  TIP3      H2             24.1506554321        2.7575895501      -27.5831877162  TIP3      3270            0.0000000000
     23611      3371  TIP3      OH2            18.6629010927       -1.1313084195      -37.3642662454  TIP3      3271            0.0000000000
     23612      3371  TIP3      H1             18.2729971747       -0.2321460166      -37.2961050776  TIP3      3271            0.0000000000
     23613      3371  TIP3      H2             19.4139941364       -1.0013916133      -37.9704500026  TIP3      3271            0.0000000000
     23614      3372  TIP3      OH2            18.8363925560       -2.2086413309      -40.0643711687  TIP3      3272            0.0000000000
     23615      3372  TIP3      H1             19.6686052132       -2.0644857748      -39.5715152059  TIP3      3272            0.0000000000
     23616      3372  TIP3      H2             18.8429074375       -3.1601992658      -40.2250060255  TIP3      3272            0.0000000000
     23617      3373  TIP3      OH2            26.0285466960       -1.6078004544      -28.8772720898  TIP3      3273            0.0000000000
     23618      3373  TIP3      H1             25.4066272037       -0.8780024181      -29.0850446630  TIP3      3273            0.0000000000
     23619      3373  TIP3      H2             26.5917710884       -1.5785491363      -29.6861419389  TIP3      3273            0.0000000000
     23620      3374  TIP3      OH2            22.6259188154       -0.8474857965      -36.1048259430  TIP3      3274            0.0000000000
     23621      3374  TIP3      H1             21.8183310736       -0.7113846280      -35.5409183061  TIP3      3274            0.0000000000
     23622      3374  TIP3      H2             23.1697073500       -1.3462165389      -35.4642689465  TIP3      3274            0.0000000000
     23623      3375  TIP3      OH2            21.9623041808       -2.6747713733      -27.1846898357  TIP3      3275            0.0000000000
     23624      3375  TIP3      H1             21.8142040707       -1.8704579328      -26.6547702460  TIP3      3275            0.0000000000
     23625      3375  TIP3      H2             21.2972177590       -2.5341431076      -27.8762976918  TIP3      3275            0.0000000000
     23626      3376  TIP3      OH2            13.4911786306       -0.4247652939      -34.4071151014  TIP3      3276            0.0000000000
     23627      3376  TIP3      H1             13.3693326038       -0.9001977122      -35.2617031485  TIP3      3276            0.0000000000
     23628      3376  TIP3      H2             14.1199909043       -0.9836610351      -33.9134244572  TIP3      3276            0.0000000000
     23629      3377  TIP3      OH2            15.1522546843        3.0545120458      -31.6872355641  TIP3      3277            0.0000000000
     23630      3377  TIP3      H1             15.2764440342        2.8300478404      -32.6270287884  TIP3      3277            0.0000000000
     23631      3377  TIP3      H2             15.7646714085        2.4554089474      -31.2363912497  TIP3      3277            0.0000000000
     23632      3378  TIP3      OH2            13.9166368981       -1.7662455072      -30.5350790372  TIP3      3278            0.0000000000
     23633      3378  TIP3      H1             14.2979099768       -1.6821225751      -31.4440665485  TIP3      3278            0.0000000000
     23634      3378  TIP3      H2             14.3594076210       -1.0322211107      -30.0516786778  TIP3      3278            0.0000000000
     23635      3379  TIP3      OH2            20.7441681412        4.0871523446      -29.7644507767  TIP3      3279            0.0000000000
     23636      3379  TIP3      H1             20.4992340898        4.7278561463      -29.0655880690  TIP3      3279            0.0000000000
     23637      3379  TIP3      H2             20.3420221481        3.2551938090      -29.4340360004  TIP3      3279            0.0000000000
     23638      3380  TIP3      OH2            14.9206418672        2.8738898990      -25.8899834600  TIP3      3280            0.0000000000
     23639      3380  TIP3      H1             14.2274076557        3.4499872505      -25.5017967554  TIP3      3280            0.0000000000
     23640      3380  TIP3      H2             14.5969532382        2.7963679396      -26.8094279072  TIP3      3280            0.0000000000
     23641      3381  TIP3      OH2            21.1453843394       -1.4676249260      -38.3521018374  TIP3      3281            0.0000000000
     23642      3381  TIP3      H1             21.7050397292       -1.2053025524      -37.5835972013  TIP3      3281            0.0000000000
     23643      3381  TIP3      H2             21.5669793497       -0.9352012799      -39.0607195024  TIP3      3281            0.0000000000
     23644      3382  TIP3      OH2            12.1636682729       -0.6621719341      -26.6855931362  TIP3      3282            0.0000000000
     23645      3382  TIP3      H1             11.9342069458        0.1681155549      -27.1384190687  TIP3      3282            0.0000000000
     23646      3382  TIP3      H2             11.2975485745       -1.0900721068      -26.6018498557  TIP3      3282            0.0000000000
     23647      3383  TIP3      OH2            18.5210973758        4.9063980969      -35.2756955442  TIP3      3283            0.0000000000
     23648      3383  TIP3      H1             18.9111731757        5.4211275452      -34.5619239096  TIP3      3283            0.0000000000
     23649      3383  TIP3      H2             18.0516996914        5.5666514897      -35.8093900772  TIP3      3283            0.0000000000
     23650      3384  TIP3      OH2            12.9969302532        4.7220974767      -25.4890677876  TIP3      3284            0.0000000000
     23651      3384  TIP3      H1             13.0981009360        4.9056929539      -26.4466684090  TIP3      3284            0.0000000000
     23652      3384  TIP3      H2             12.0535609340        4.5314446703      -25.3577401862  TIP3      3284            0.0000000000
     23653      3385  TIP3      OH2            25.0423356996      -10.1979583137      -38.3621634604  TIP3      3285            0.0000000000
     23654      3385  TIP3      H1             24.0837760731      -10.1197257086      -38.1430612658  TIP3      3285            0.0000000000
     23655      3385  TIP3      H2             25.2057610320       -9.3535978706      -38.8252399167  TIP3      3285            0.0000000000
     23656      3386  TIP3      OH2            12.7207210525       -1.5898234064      -36.7109043541  TIP3      3286            0.0000000000
     23657      3386  TIP3      H1             12.2551150289       -0.7883462597      -37.0533893887  TIP3      3286            0.0000000000
     23658      3386  TIP3      H2             12.1651794661       -2.3094148731      -37.0159195327  TIP3      3286            0.0000000000
     23659      3387  TIP3      OH2            25.6866918678        4.4974342567      -40.2256721884  TIP3      3287            0.0000000000
     23660      3387  TIP3      H1             26.0041664163        5.4265050340      -40.2595332159  TIP3      3287            0.0000000000
     23661      3387  TIP3      H2             26.5181713899        3.9738585670      -40.2157731872  TIP3      3287            0.0000000000
     23662      3388  TIP3      OH2             8.8676547431        1.3021749100      -27.9603451216  TIP3      3288            0.0000000000
     23663      3388  TIP3      H1              8.3190846772        1.2696688865      -28.7530639000  TIP3      3288            0.0000000000
     23664      3388  TIP3      H2              9.3163390514        0.4288101562      -28.0340783758  TIP3      3288            0.0000000000
     23665      3389  TIP3      OH2             8.7049818491        3.7670534162      -31.0841887051  TIP3      3289            0.0000000000
     23666      3389  TIP3      H1              9.4183114707        3.6137734914      -31.7090183289  TIP3      3289            0.0000000000
     23667      3389  TIP3      H2              9.0380159676        4.5631929646      -30.6486953581  TIP3      3289            0.0000000000
     23668      3390  TIP3      OH2            27.0197149262        4.7392137589      -26.0781286475  TIP3      3290            0.0000000000
     23669      3390  TIP3      H1             27.2420690251        3.8373445638      -25.8236358709  TIP3      3290            0.0000000000
     23670      3390  TIP3      H2             26.2673999885        4.9200880242      -25.4610781381  TIP3      3290            0.0000000000
     23671      3391  TIP3      OH2            17.2588497611        4.2722735297      -25.9214743893  TIP3      3291            0.0000000000
     23672      3391  TIP3      H1             17.2305030331        5.2222031251      -25.6851978544  TIP3      3291            0.0000000000
     23673      3391  TIP3      H2             16.3255288283        4.0168506296      -26.0651039779  TIP3      3291            0.0000000000
     23674      3392  TIP3      OH2            17.9564375378        7.8265811493      -37.2342884787  TIP3      3292            0.0000000000
     23675      3392  TIP3      H1             18.1300246727        7.9725748756      -38.1903904700  TIP3      3292            0.0000000000
     23676      3392  TIP3      H2             18.0900830249        8.7212752585      -36.8628291962  TIP3      3292            0.0000000000
     23677      3393  TIP3      OH2            11.9606386162        6.3628540404      -34.8903337041  TIP3      3293            0.0000000000
     23678      3393  TIP3      H1             12.2593181398        6.2078663169      -33.9656285987  TIP3      3293            0.0000000000
     23679      3393  TIP3      H2             11.0008763769        6.2257310670      -34.7920787659  TIP3      3293            0.0000000000
     23680      3394  TIP3      OH2            21.4322930570        7.1498747033      -39.8901038342  TIP3      3294            0.0000000000
     23681      3394  TIP3      H1             21.8426126809        6.3293824539      -40.2341131403  TIP3      3294            0.0000000000
     23682      3394  TIP3      H2             21.4651911784        7.0004893526      -38.9225286143  TIP3      3294            0.0000000000
     23683      3395  TIP3      OH2            20.7398044944        7.0210682414      -37.0229476825  TIP3      3295            0.0000000000
     23684      3395  TIP3      H1             19.8205116200        7.2590730717      -36.8051092105  TIP3      3295            0.0000000000
     23685      3395  TIP3      H2             20.8026654741        6.1340156376      -36.6371575265  TIP3      3295            0.0000000000
     23686      3396  TIP3      OH2            23.8949888198       -3.9683015735      -25.1650628818  TIP3      3296            0.0000000000
     23687      3396  TIP3      H1             23.0544605645       -3.5907354373      -25.4816590095  TIP3      3296            0.0000000000
     23688      3396  TIP3      H2             23.7758955700       -4.9043677769      -25.4080490858  TIP3      3296            0.0000000000
     23689      3397  TIP3      OH2            11.2559723906        2.1623318773      -27.0121415517  TIP3      3297            0.0000000000
     23690      3397  TIP3      H1             11.2023445851        2.0274655788      -26.0431460925  TIP3      3297            0.0000000000
     23691      3397  TIP3      H2             10.3072425494        2.1163620478      -27.2582076088  TIP3      3297            0.0000000000
     23692      3398  TIP3      OH2            13.6376626297       -9.0330680491      -31.0229239477  TIP3      3298            0.0000000000
     23693      3398  TIP3      H1             12.7172172785       -9.2697605015      -31.2784996606  TIP3      3298            0.0000000000
     23694      3398  TIP3      H2             13.4462369365       -8.4828821479      -30.2228302044  TIP3      3298            0.0000000000
     23695      3399  TIP3      OH2            18.7209559547       -9.5221323295      -27.8715785890  TIP3      3299            0.0000000000
     23696      3399  TIP3      H1             19.0150112885       -9.7818618643      -26.9632261014  TIP3      3299            0.0000000000
     23697      3399  TIP3      H2             17.7375246402       -9.4815083975      -27.8302105214  TIP3      3299            0.0000000000
     23698      3400  TIP3      OH2            21.6761645945       -5.2806256706      -26.3516920460  TIP3      3300            0.0000000000
     23699      3400  TIP3      H1             21.0010032018       -5.5717173415      -25.7100251642  TIP3      3300            0.0000000000
     23700      3400  TIP3      H2             21.4730165874       -4.3348765800      -26.4904645739  TIP3      3300            0.0000000000
     23701      3401  TIP3      OH2            22.4700104645       -0.2167791847      -40.3615083688  TIP3      3301            0.0000000000
     23702      3401  TIP3      H1             22.3135651561       -0.1859337095      -41.3188334218  TIP3      3301            0.0000000000
     23703      3401  TIP3      H2             23.2878456169        0.3153173189      -40.2688925013  TIP3      3301            0.0000000000
     23704      3402  TIP3      OH2            18.1992124136       -6.6515420187      -40.2789575186  TIP3      3302            0.0000000000
     23705      3402  TIP3      H1             17.2551809047       -6.7511478446      -40.0678303249  TIP3      3302            0.0000000000
     23706      3402  TIP3      H2             18.3985435177       -7.5142433362      -40.6624138791  TIP3      3302            0.0000000000
     23707      3403  TIP3      OH2            13.9709599591       -4.2395209650      -29.6174398372  TIP3      3303            0.0000000000
     23708      3403  TIP3      H1             13.1579405241       -4.1756716430      -29.0714128848  TIP3      3303            0.0000000000
     23709      3403  TIP3      H2             13.9609530618       -3.3381817724      -30.0082145510  TIP3      3303            0.0000000000
     23710      3404  TIP3      OH2            14.2698935798       -3.9895533121      -34.4468536637  TIP3      3304            0.0000000000
     23711      3404  TIP3      H1             13.3993217189       -3.7038456117      -34.7947703636  TIP3      3304            0.0000000000
     23712      3404  TIP3      H2             14.7015931309       -4.2436061020      -35.2733936571  TIP3      3304            0.0000000000
     23713      3405  TIP3      OH2            19.6813356149       -3.1196906801      -35.8955900432  TIP3      3305            0.0000000000
     23714      3405  TIP3      H1             19.2265416269       -2.3836270013      -36.3794382390  TIP3      3305            0.0000000000
     23715      3405  TIP3      H2             20.1939351958       -3.4960973344      -36.6220506718  TIP3      3305            0.0000000000
     23716      3406  TIP3      OH2            17.6057140741       -3.1633002251      -24.4892708229  TIP3      3306            0.0000000000
     23717      3406  TIP3      H1             17.4718931811       -4.0720039997      -24.1158989143  TIP3      3306            0.0000000000
     23718      3406  TIP3      H2             18.5610486624       -3.0657742626      -24.3633036669  TIP3      3306            0.0000000000
     23719      3407  TIP3      OH2            19.9490412553       -3.6098973451      -33.0225519857  TIP3      3307            0.0000000000
     23720      3407  TIP3      H1             19.8270469071       -2.8197249079      -33.5980934465  TIP3      3307            0.0000000000
     23721      3407  TIP3      H2             20.0051119278       -4.2846358050      -33.7189151226  TIP3      3307            0.0000000000
     23722      3408  TIP3      OH2            11.4190217733       -4.0427344840      -28.4075569849  TIP3      3308            0.0000000000
     23723      3408  TIP3      H1             11.7548506553       -3.7060833597      -27.5576857367  TIP3      3308            0.0000000000
     23724      3408  TIP3      H2             11.1449927431       -4.9583405535      -28.1708400566  TIP3      3308            0.0000000000
     23725      3409  TIP3      OH2            14.7039628053       -6.3812363676      -41.0481118649  TIP3      3309            0.0000000000
     23726      3409  TIP3      H1             14.2133509553       -6.8832218774      -40.3825212702  TIP3      3309            0.0000000000
     23727      3409  TIP3      H2             14.2349451631       -5.5284302655      -41.0684966211  TIP3      3309            0.0000000000
     23728      3410  TIP3      OH2             7.9904290018       -7.0981066841      -33.8509262054  TIP3      3310            0.0000000000
     23729      3410  TIP3      H1              8.6493088809       -7.0134183464      -33.1302227362  TIP3      3310            0.0000000000
     23730      3410  TIP3      H2              8.4625194511       -6.7465765799      -34.6209704084  TIP3      3310            0.0000000000
     23731      3411  TIP3      OH2             9.2187111311       -6.1998961857      -38.6157578368  TIP3      3311            0.0000000000
     23732      3411  TIP3      H1              9.9210486299       -5.9572365597      -39.2562099092  TIP3      3311            0.0000000000
     23733      3411  TIP3      H2              8.8475208635       -5.3295186667      -38.3840329562  TIP3      3311            0.0000000000
     23734      3412  TIP3      OH2            19.4004212659       -2.2492884093      -28.7444198075  TIP3      3312            0.0000000000
     23735      3412  TIP3      H1             19.9725672054       -2.9379026749      -29.1405500056  TIP3      3312            0.0000000000
     23736      3412  TIP3      H2             18.8744565371       -2.7999378405      -28.1163373999  TIP3      3312            0.0000000000
     23737      3413  TIP3      OH2            16.8414032421       -6.3684879010      -33.3460669103  TIP3      3313            0.0000000000
     23738      3413  TIP3      H1             17.0620791392       -5.6951377821      -32.6717139515  TIP3      3313            0.0000000000
     23739      3413  TIP3      H2             17.3055600189       -7.1725033522      -33.0212117212  TIP3      3313            0.0000000000
     23740      3414  TIP3      OH2            11.5059036687       -4.5431874980      -35.0084158185  TIP3      3314            0.0000000000
     23741      3414  TIP3      H1             10.6176464965       -4.3612199898      -35.3855983848  TIP3      3314            0.0000000000
     23742      3414  TIP3      H2             11.7189856374       -5.4081955831      -35.3785136902  TIP3      3314            0.0000000000
     23743      3415  TIP3      OH2            14.4299683191       -4.9144965766      -37.2016786792  TIP3      3315            0.0000000000
     23744      3415  TIP3      H1             15.3515664309       -4.6044446643      -37.2229536573  TIP3      3315            0.0000000000
     23745      3415  TIP3      H2             13.9872301503       -4.2561882562      -37.7566997319  TIP3      3315            0.0000000000
     23746      3416  TIP3      OH2            20.7132427133       -7.0689498388      -30.7324934111  TIP3      3316            0.0000000000
     23747      3416  TIP3      H1             20.1018736728       -7.1667688455      -29.9691847074  TIP3      3316            0.0000000000
     23748      3416  TIP3      H2             20.5455710014       -7.8821098993      -31.2285119221  TIP3      3316            0.0000000000
     23749      3417  TIP3      OH2            13.3759206281       -3.0997168366      -40.1979970224  TIP3      3317            0.0000000000
     23750      3417  TIP3      H1             12.8038368755       -3.2578509996      -40.9669644083  TIP3      3317            0.0000000000
     23751      3417  TIP3      H2             14.2577832834       -2.9802991304      -40.6080828341  TIP3      3317            0.0000000000
     23752      3418  TIP3      OH2            23.9073269467        8.5565823409      -24.5116756375  TIP3      3318            0.0000000000
     23753      3418  TIP3      H1             24.2316253875        9.0070901783      -25.3175875656  TIP3      3318            0.0000000000
     23754      3418  TIP3      H2             24.6216903314        8.7616357220      -23.8722955448  TIP3      3318            0.0000000000
     23755      3419  TIP3      OH2            11.1999657065        1.2406659422      -24.2588451565  TIP3      3319            0.0000000000
     23756      3419  TIP3      H1             12.0201393937        1.0711124039      -23.7386378850  TIP3      3319            0.0000000000
     23757      3419  TIP3      H2             10.7908088402        0.3655007250      -24.1826638404  TIP3      3319            0.0000000000
     23758      3420  TIP3      OH2            17.3002710212       -3.9110732790      -32.2264607019  TIP3      3320            0.0000000000
     23759      3420  TIP3      H1             18.2764334998       -3.8675934020      -32.3490241887  TIP3      3320            0.0000000000
     23760      3420  TIP3      H2             17.1943554855       -3.7708359407      -31.2862639231  TIP3      3320            0.0000000000
     23761      3421  TIP3      OH2            12.3353568187       -7.8591493071      -35.5527119062  TIP3      3321            0.0000000000
     23762      3421  TIP3      H1             11.6497491574       -8.4826236315      -35.2407872759  TIP3      3321            0.0000000000
     23763      3421  TIP3      H2             12.5169324678       -8.1652756145      -36.4571864352  TIP3      3321            0.0000000000
     23764      3422  TIP3      OH2            16.4501915697       -5.4614233503      -29.1104872954  TIP3      3322            0.0000000000
     23765      3422  TIP3      H1             15.7439383591       -4.8453321086      -29.3890902723  TIP3      3322            0.0000000000
     23766      3422  TIP3      H2             17.1185634998       -4.8575793356      -28.7473531036  TIP3      3322            0.0000000000
     23767      3423  TIP3      OH2            16.9024505852        0.9053324796      -37.4598600194  TIP3      3323            0.0000000000
     23768      3423  TIP3      H1             16.2076937304        0.3303783277      -37.8454256363  TIP3      3323            0.0000000000
     23769      3423  TIP3      H2             16.4549089508        1.1963828667      -36.6338968199  TIP3      3323            0.0000000000
     23770      3424  TIP3      OH2            24.2314074730        0.4412108363      -29.2063690515  TIP3      3324            0.0000000000
     23771      3424  TIP3      H1             24.8034489977        1.0525979535      -29.7263801721  TIP3      3324            0.0000000000
     23772      3424  TIP3      H2             23.4486497333        0.3422886676      -29.7749238686  TIP3      3324            0.0000000000
     23773      3425  TIP3      OH2            20.9123951570       -5.9618449497      -40.1763580039  TIP3      3325            0.0000000000
     23774      3425  TIP3      H1             20.0248851619       -6.2579793644      -39.8926320829  TIP3      3325            0.0000000000
     23775      3425  TIP3      H2             21.0272098713       -5.2082752502      -39.5479452106  TIP3      3325            0.0000000000
     23776      3426  TIP3      OH2            17.9424864393        1.5137418292      -26.6213103897  TIP3      3326            0.0000000000
     23777      3426  TIP3      H1             17.6489733298        0.7535945223      -26.1071738450  TIP3      3326            0.0000000000
     23778      3426  TIP3      H2             17.4897291170        2.2678508810      -26.1969083037  TIP3      3326            0.0000000000
     23779      3427  TIP3      OH2            21.5278211445       -4.1394273252      -38.2932979730  TIP3      3327            0.0000000000
     23780      3427  TIP3      H1             22.2524038428       -4.3292377541      -37.6671677185  TIP3      3327            0.0000000000
     23781      3427  TIP3      H2             21.5537143026       -3.1627867434      -38.3261241827  TIP3      3327            0.0000000000
     23782      3428  TIP3      OH2            11.9352920542        0.4788058679      -32.2469363113  TIP3      3328            0.0000000000
     23783      3428  TIP3      H1             12.4679776380        0.2771223143      -33.0489658746  TIP3      3328            0.0000000000
     23784      3428  TIP3      H2             12.1900406363       -0.2089061768      -31.6100341587  TIP3      3328            0.0000000000
     23785      3429  TIP3      OH2            18.8650866985        2.3783582321      -38.4004190462  TIP3      3329            0.0000000000
     23786      3429  TIP3      H1             18.3966806691        3.2397008156      -38.3073236600  TIP3      3329            0.0000000000
     23787      3429  TIP3      H2             18.1325821417        1.7342993949      -38.2587547819  TIP3      3329            0.0000000000
     23788      3430  TIP3      OH2             9.2569099973       -1.3106518152      -27.1837966005  TIP3      3330            0.0000000000
     23789      3430  TIP3      H1              8.8155545111       -1.8740081457      -26.5358069974  TIP3      3330            0.0000000000
     23790      3430  TIP3      H2              8.7598928003       -1.5739007881      -27.9908784905  TIP3      3330            0.0000000000
     23791      3431  TIP3      OH2            15.3881165472       -1.5278100607      -24.7264343111  TIP3      3331            0.0000000000
     23792      3431  TIP3      H1             15.2832065183       -1.4281172632      -25.6885845495  TIP3      3331            0.0000000000
     23793      3431  TIP3      H2             16.1636673550       -2.1326938290      -24.6887656694  TIP3      3331            0.0000000000
     23794      3432  TIP3      OH2            21.1101123956        3.4865900398      -26.4945770269  TIP3      3332            0.0000000000
     23795      3432  TIP3      H1             20.2165622728        3.4606089913      -26.8479101794  TIP3      3332            0.0000000000
     23796      3432  TIP3      H2             20.9693661987        3.9560522190      -25.6567496472  TIP3      3332            0.0000000000
     23797      3433  TIP3      OH2            25.2904340852       -4.0327087716      -37.8165830249  TIP3      3333            0.0000000000
     23798      3433  TIP3      H1             25.2516499141       -4.0578017848      -38.8079046930  TIP3      3333            0.0000000000
     23799      3433  TIP3      H2             25.7886211694       -3.2013553634      -37.6779945824  TIP3      3333            0.0000000000
     23800      3434  TIP3      OH2            26.9249801665        1.6607425181      -25.4849858773  TIP3      3334            0.0000000000
     23801      3434  TIP3      H1             26.0384080700        2.0740722674      -25.4431075587  TIP3      3334            0.0000000000
     23802      3434  TIP3      H2             27.1028389428        1.5664426338      -26.4583519201  TIP3      3334            0.0000000000
     23803      3435  TIP3      OH2            24.3459221593        4.7090965154      -37.6922755856  TIP3      3335            0.0000000000
     23804      3435  TIP3      H1             23.5163514855        4.2323260714      -37.5702988583  TIP3      3335            0.0000000000
     23805      3435  TIP3      H2             24.7053515757        4.3907075060      -38.5430590836  TIP3      3335            0.0000000000
     23806      3436  TIP3      OH2            21.7540159057       -0.6036451850      -30.8533642294  TIP3      3336            0.0000000000
     23807      3436  TIP3      H1             20.8104566877       -0.7723935265      -31.0519009068  TIP3      3336            0.0000000000
     23808      3436  TIP3      H2             22.1427298633       -1.3402400029      -31.3621493668  TIP3      3336            0.0000000000
     23809      3437  TIP3      OH2            14.2032220115        3.8020331642      -34.4975685164  TIP3      3337            0.0000000000
     23810      3437  TIP3      H1             14.6032641912        4.6910761825      -34.5298114022  TIP3      3337            0.0000000000
     23811      3437  TIP3      H2             13.3916320290        3.9580919310      -35.0064895995  TIP3      3337            0.0000000000
     23812      3438  TIP3      OH2            10.3351577450       -1.4899376199      -40.0401279800  TIP3      3338            0.0000000000
     23813      3438  TIP3      H1             10.8595128703       -1.0175501301      -39.3727650519  TIP3      3338            0.0000000000
     23814      3438  TIP3      H2              9.4179590892       -1.4138597219      -39.7178775441  TIP3      3338            0.0000000000
     23815      3439  TIP3      OH2            15.4306858073        1.5284969177      -35.2359768917  TIP3      3339            0.0000000000
     23816      3439  TIP3      H1             14.9353994838        2.3601276261      -35.0528229436  TIP3      3339            0.0000000000
     23817      3439  TIP3      H2             14.9913849785        0.8773799992      -34.6654902413  TIP3      3339            0.0000000000
     23818      3440  TIP3      OH2            16.2615937160        5.8428737799      -28.3166574239  TIP3      3340            0.0000000000
     23819      3440  TIP3      H1             16.9678745595        6.3549842793      -28.7589001654  TIP3      3340            0.0000000000
     23820      3440  TIP3      H2             16.7515334557        5.5116927398      -27.5402442173  TIP3      3340            0.0000000000
     23821      3441  TIP3      OH2            14.5573068823        6.4374300771      -35.8104168497  TIP3      3341            0.0000000000
     23822      3441  TIP3      H1             13.6103738916        6.5245803755      -35.5724642000  TIP3      3341            0.0000000000
     23823      3441  TIP3      H2             14.9141064490        7.2664061785      -35.4180328893  TIP3      3341            0.0000000000
     23824      3442  TIP3      OH2            19.4196915127        1.6270174002      -29.0679536729  TIP3      3342            0.0000000000
     23825      3442  TIP3      H1             19.0608482418        1.5530332809      -28.1560395543  TIP3      3342            0.0000000000
     23826      3442  TIP3      H2             19.9516647436        0.8189203115      -29.1353165746  TIP3      3342            0.0000000000
     23827      3443  TIP3      OH2            22.0441161620        2.9463203332      -39.6819882063  TIP3      3343            0.0000000000
     23828      3443  TIP3      H1             22.3042625779        2.4789219832      -38.8563245592  TIP3      3343            0.0000000000
     23829      3443  TIP3      H2             21.1308268838        2.6263607118      -39.7498892051  TIP3      3343            0.0000000000
     23830      3444  TIP3      OH2            23.0153115015        5.8313665552      -27.1050494820  TIP3      3344            0.0000000000
     23831      3444  TIP3      H1             22.1865453567        5.3586358810      -26.9040700259  TIP3      3344            0.0000000000
     23832      3444  TIP3      H2             22.7287531270        6.5432654717      -27.7278885778  TIP3      3344            0.0000000000
     23833      3445  TIP3      OH2            26.3405695898        7.1330401416      -39.9070694070  TIP3      3345            0.0000000000
     23834      3445  TIP3      H1             27.1698058340        7.6406147443      -40.0336549869  TIP3      3345            0.0000000000
     23835      3445  TIP3      H2             25.8420699042        7.7646078240      -39.3333995935  TIP3      3345            0.0000000000
     23836      3446  TIP3      OH2            10.8535528667       -6.4969447183      -27.2057893395  TIP3      3346            0.0000000000
     23837      3446  TIP3      H1             10.1747538175       -6.1776175002      -26.5756289596  TIP3      3346            0.0000000000
     23838      3446  TIP3      H2             10.8182738562       -7.4477964401      -26.9787513041  TIP3      3346            0.0000000000
     23839      3447  TIP3      OH2            22.8692412355        1.4428297072      -37.5208372515  TIP3      3347            0.0000000000
     23840      3447  TIP3      H1             22.7114966441        0.6038125625      -37.0218588861  TIP3      3347            0.0000000000
     23841      3447  TIP3      H2             23.8439170381        1.3898285569      -37.6091515685  TIP3      3347            0.0000000000
     23842      3448  TIP3      OH2            10.2751181363        5.0788144031      -28.8294971027  TIP3      3348            0.0000000000
     23843      3448  TIP3      H1             10.9420196624        4.3804131028      -28.7871901106  TIP3      3348            0.0000000000
     23844      3448  TIP3      H2             10.3080474140        5.4470262929      -27.9412124971  TIP3      3348            0.0000000000
     23845      3449  TIP3      OH2            14.8020935146        3.2753206241      -39.1582194700  TIP3      3349            0.0000000000
     23846      3449  TIP3      H1             15.2663592920        2.7349726013      -38.4987132605  TIP3      3349            0.0000000000
     23847      3449  TIP3      H2             14.8673935165        4.1878832409      -38.7691411563  TIP3      3349            0.0000000000
     23848      3450  TIP3      OH2            11.5806464044        0.4335167362      -38.2523517445  TIP3      3350            0.0000000000
     23849      3450  TIP3      H1             10.8062900627        0.9299833923      -37.8984453373  TIP3      3350            0.0000000000
     23850      3450  TIP3      H2             11.9419647117        1.0598691344      -38.9048978435  TIP3      3350            0.0000000000
     23851      3451  TIP3      OH2            19.6078037764       -6.9743084832      -28.0652099674  TIP3      3351            0.0000000000
     23852      3451  TIP3      H1             20.1457276919       -6.7103984714      -27.3094652260  TIP3      3351            0.0000000000
     23853      3451  TIP3      H2             19.2589426643       -7.8528560690      -27.8039492823  TIP3      3351            0.0000000000
     23854      3452  TIP3      OH2            20.2924101484       -7.3106266088      -37.2662887388  TIP3      3352            0.0000000000
     23855      3452  TIP3      H1             20.9787858239       -6.9214594655      -37.8276050724  TIP3      3352            0.0000000000
     23856      3452  TIP3      H2             20.6923997366       -7.2193047537      -36.3754744536  TIP3      3352            0.0000000000
     23857      3453  TIP3      OH2            17.8046194217        4.9256865549      -38.3844200239  TIP3      3353            0.0000000000
     23858      3453  TIP3      H1             17.2752849808        5.6303668979      -37.9750559550  TIP3      3353            0.0000000000
     23859      3453  TIP3      H2             17.7252115760        5.1332015370      -39.3356515488  TIP3      3353            0.0000000000
     23860      3454  TIP3      OH2            17.3981186624       -5.2949061237      -35.7971890136  TIP3      3354            0.0000000000
     23861      3454  TIP3      H1             18.0923187032       -4.6177405805      -35.6992189433  TIP3      3354            0.0000000000
     23862      3454  TIP3      H2             17.1936071715       -5.5719257736      -34.8823016225  TIP3      3354            0.0000000000
     23863      3455  TIP3      OH2            18.2889405268       -4.1439817575      -27.1925536205  TIP3      3355            0.0000000000
     23864      3455  TIP3      H1             17.8833189512       -3.7236527725      -26.4054779402  TIP3      3355            0.0000000000
     23865      3455  TIP3      H2             18.6675810165       -4.9759967703      -26.8486172308  TIP3      3355            0.0000000000
     23866      3456  TIP3      OH2            18.2652023866       -8.5197242946      -36.0143429052  TIP3      3356            0.0000000000
     23867      3456  TIP3      H1             17.9010780690       -7.7335817266      -35.5697853490  TIP3      3356            0.0000000000
     23868      3456  TIP3      H2             19.0281882964       -8.1171345995      -36.5135490328  TIP3      3356            0.0000000000
     23869      3457  TIP3      OH2            15.0145545889        5.8493096573      -38.3789995913  TIP3      3357            0.0000000000
     23870      3457  TIP3      H1             15.2981471401        6.6492574869      -38.8761071247  TIP3      3357            0.0000000000
     23871      3457  TIP3      H2             14.7231991615        6.2623382231      -37.5374580408  TIP3      3357            0.0000000000
     23872      3458  TIP3      OH2            13.4559704462       -7.3607109936      -38.1741014744  TIP3      3358            0.0000000000
     23873      3458  TIP3      H1             13.5769862530       -6.4931416716      -37.7422493270  TIP3      3358            0.0000000000
     23874      3458  TIP3      H2             14.3852927624       -7.6650385894      -38.2306343131  TIP3      3358            0.0000000000
     23875      3459  TIP3      OH2            24.2450177370       -6.7474132971      -26.1292083255  TIP3      3359            0.0000000000
     23876      3459  TIP3      H1             23.2919528860       -6.6559167923      -26.3187519222  TIP3      3359            0.0000000000
     23877      3459  TIP3      H2             24.6819653144       -6.5324047572      -26.9764196588  TIP3      3359            0.0000000000
     23878      3460  TIP3      OH2            22.5550095336       -2.7501928961      -32.6186823801  TIP3      3360            0.0000000000
     23879      3460  TIP3      H1             21.7047610823       -3.2148274248      -32.5364264525  TIP3      3360            0.0000000000
     23880      3460  TIP3      H2             23.1294832063       -3.2984886952      -32.0356220139  TIP3      3360            0.0000000000
     23881      3461  TIP3      OH2            12.1211142335        3.1341783741      -39.9792261780  TIP3      3361            0.0000000000
     23882      3461  TIP3      H1             12.9530246051        3.3367677889      -39.5012668935  TIP3      3361            0.0000000000
     23883      3461  TIP3      H2             12.4652699924        2.6093254871      -40.7205755989  TIP3      3361            0.0000000000
     23884      3462  TIP3      OH2            10.4336336042       -4.1612927380      -40.5653526041  TIP3      3362            0.0000000000
     23885      3462  TIP3      H1             10.7388048584       -3.2814662447      -40.2631616054  TIP3      3362            0.0000000000
     23886      3462  TIP3      H2              9.4863882349       -3.9777575114      -40.6877709025  TIP3      3362            0.0000000000
     23887      3463  TIP3      OH2            23.8598345436        6.5615953199      -30.8739690535  TIP3      3363            0.0000000000
     23888      3463  TIP3      H1             23.7151211251        7.2899265029      -31.5265957122  TIP3      3363            0.0000000000
     23889      3463  TIP3      H2             24.8257197229        6.6225665806      -30.7624948937  TIP3      3363            0.0000000000
     23890      3464  TIP3      OH2            11.0271206755       -9.4233589391      -31.6270083727  TIP3      3364            0.0000000000
     23891      3464  TIP3      H1             10.9243299049       -9.8237969142      -32.5181492238  TIP3      3364            0.0000000000
     23892      3464  TIP3      H2             10.6747584525      -10.1651485571      -31.0810978550  TIP3      3364            0.0000000000
     23893      3465  TIP3      OH2             9.5612648653        4.1440507652      -36.3623184725  TIP3      3365            0.0000000000
     23894      3465  TIP3      H1              9.2732827430        4.7666258736      -35.6794225971  TIP3      3365            0.0000000000
     23895      3465  TIP3      H2              9.7088658866        4.7784387960      -37.1004897182  TIP3      3365            0.0000000000
     23896      3466  TIP3      OH2             9.3326385405        6.8146855344      -24.6081483008  TIP3      3366            0.0000000000
     23897      3466  TIP3      H1             10.1532917309        6.3184944667      -24.4871479606  TIP3      3366            0.0000000000
     23898      3466  TIP3      H2              8.7588929631        6.0483836124      -24.8286506357  TIP3      3366            0.0000000000
     23899      3467  TIP3      OH2            17.9784384198        5.5948008759      -41.0663289940  TIP3      3367            0.0000000000
     23900      3467  TIP3      H1             17.7769490511        4.6920501589      -41.3411320464  TIP3      3367            0.0000000000
     23901      3467  TIP3      H2             18.3517484618        5.9282431955      -41.8953357253  TIP3      3367            0.0000000000
     23902      3468  TIP3      OH2            20.2142459364        4.4549715492      -23.7987642074  TIP3      3368            0.0000000000
     23903      3468  TIP3      H1             20.3610929719        3.5077436562      -23.6952292851  TIP3      3368            0.0000000000
     23904      3468  TIP3      H2             21.0034303471        4.8211940080      -23.3276278981  TIP3      3368            0.0000000000
     23905      3469  TIP3      OH2            23.1131222442        5.0350611736      -41.1103319177  TIP3      3369            0.0000000000
     23906      3469  TIP3      H1             22.6353015140        4.3793587595      -40.5643575001  TIP3      3369            0.0000000000
     23907      3469  TIP3      H2             24.0343766156        4.8179952378      -40.8473570203  TIP3      3369            0.0000000000
     23908      3470  TIP3      OH2            13.9809283101        1.2753766484      -41.2189947012  TIP3      3370            0.0000000000
     23909      3470  TIP3      H1             14.5910747917        1.0553745747      -40.4974390840  TIP3      3370            0.0000000000
     23910      3470  TIP3      H2             14.3429224253        0.6545092146      -41.8887939439  TIP3      3370            0.0000000000
     23911      3471  TIP3      OH2            21.7426443799        0.7191174589      -26.5190296528  TIP3      3371            0.0000000000
     23912      3471  TIP3      H1             22.6840224095        1.0124386055      -26.5167919861  TIP3      3371            0.0000000000
     23913      3471  TIP3      H2             21.3457612905        1.6157050779      -26.4967775915  TIP3      3371            0.0000000000
     23914      3472  TIP3      OH2            10.3693404932       -2.0944827631      -23.6819977685  TIP3      3372            0.0000000000
     23915      3472  TIP3      H1              9.8639806801       -2.6940413066      -24.2388215210  TIP3      3372            0.0000000000
     23916      3472  TIP3      H2             10.8607425898       -2.7457588492      -23.1490327180  TIP3      3372            0.0000000000
     23917      3473  TIP3      OH2            14.9683180792       -0.6483000876      -38.7152802018  TIP3      3373            0.0000000000
     23918      3473  TIP3      H1             14.2170790867       -1.0657613462      -38.2626906030  TIP3      3373            0.0000000000
     23919      3473  TIP3      H2             15.3021938242       -1.3526775873      -39.2976827094  TIP3      3373            0.0000000000
     23920      3474  TIP3      OH2            13.8197730463       -2.9150240259      -27.0239161940  TIP3      3374            0.0000000000
     23921      3474  TIP3      H1             13.3617887556       -2.1403796859      -26.6371192989  TIP3      3374            0.0000000000
     23922      3474  TIP3      H2             14.5607840314       -2.4924773384      -27.4926818473  TIP3      3374            0.0000000000
     23923      3475  TIP3      OH2            16.1778265599       -2.4011173762      -40.6866270746  TIP3      3375            0.0000000000
     23924      3475  TIP3      H1             16.5983322197       -2.6005088621      -41.5383589869  TIP3      3375            0.0000000000
     23925      3475  TIP3      H2             16.9964862472       -2.3006020714      -40.1395900809  TIP3      3375            0.0000000000
     23926      3476  TIP3      OH2            25.0057630968        0.6153676517      -41.4130472898  TIP3      3376            0.0000000000
     23927      3476  TIP3      H1             24.4958609248        0.5428583805      -42.2434375482  TIP3      3376            0.0000000000
     23928      3476  TIP3      H2             25.4851979019        1.4472906271      -41.5580355578  TIP3      3376            0.0000000000
     23929      3477  TIP3      OH2            14.9276827556       -5.3000885618      -25.7967337240  TIP3      3377            0.0000000000
     23930      3477  TIP3      H1             14.9092853024       -5.9984891323      -26.4834377246  TIP3      3377            0.0000000000
     23931      3477  TIP3      H2             14.7852562940       -4.4928988837      -26.3300360862  TIP3      3377            0.0000000000
     23932      3478  TIP3      OH2            14.8943461530       -7.1534908274      -27.7534650241  TIP3      3378            0.0000000000
     23933      3478  TIP3      H1             15.5686425310       -6.6441041219      -28.2612726297  TIP3      3378            0.0000000000
     23934      3478  TIP3      H2             14.0797176064       -6.9692040357      -28.2589736686  TIP3      3378            0.0000000000
     23935      3479  TIP3      OH2            16.2424269338       -1.3036640894      -27.7157538143  TIP3      3379            0.0000000000
     23936      3479  TIP3      H1             17.0222857821       -0.9654119850      -28.1902744168  TIP3      3379            0.0000000000
     23937      3479  TIP3      H2             15.5722090300       -0.6846283583      -28.0829864316  TIP3      3379            0.0000000000
     23938      3480  TIP3      OH2            20.5342698503       -3.9949383528      -23.0057472273  TIP3      3380            0.0000000000
     23939      3480  TIP3      H1             20.5720174596       -4.9237631097      -22.7389598415  TIP3      3380            0.0000000000
     23940      3480  TIP3      H2             21.4415324076       -3.6904508673      -22.8882844765  TIP3      3380            0.0000000000
     23941      3481  TIP3      OH2            22.5360405737       -1.1641765033      -24.7651896578  TIP3      3381            0.0000000000
     23942      3481  TIP3      H1             22.2098571710       -0.4185424368      -25.3019426599  TIP3      3381            0.0000000000
     23943      3481  TIP3      H2             23.5024597492       -0.9945972000      -24.6949805159  TIP3      3381            0.0000000000
     23944      3482  TIP3      OH2            13.1079077103       -4.9570255323      -23.7982587162  TIP3      3382            0.0000000000
     23945      3482  TIP3      H1             12.3225318517       -4.9455202773      -24.3511756754  TIP3      3382            0.0000000000
     23946      3482  TIP3      H2             13.8078653736       -5.0499280136      -24.4854667963  TIP3      3382            0.0000000000
     23947      3483  TIP3      OH2            15.9576164518       -9.5909328423      -28.2095344568  TIP3      3383            0.0000000000
     23948      3483  TIP3      H1             15.5839475468       -8.7292564704      -27.9057901791  TIP3      3383            0.0000000000
     23949      3483  TIP3      H2             15.1554589163      -10.1272504564      -28.2879691518  TIP3      3383            0.0000000000
     23950      3484  TIP3      OH2            16.9616804792       -5.6527488013      -23.6503058412  TIP3      3384            0.0000000000
     23951      3484  TIP3      H1             16.5692600394       -6.2288069526      -22.9645208760  TIP3      3384            0.0000000000
     23952      3484  TIP3      H2             16.2763532299       -5.6742891324      -24.3550384799  TIP3      3384            0.0000000000
     23953      3485  TIP3      OH2            19.6017629790       -6.3738570802      -24.7682300427  TIP3      3385            0.0000000000
     23954      3485  TIP3      H1             18.7175231517       -6.2289572487      -24.3662454980  TIP3      3385            0.0000000000
     23955      3485  TIP3      H2             20.0412965807       -6.8992175204      -24.0704758326  TIP3      3385            0.0000000000
     23956      3486  TIP3      OH2            20.9763505351       -7.7926461665      -22.7226410638  TIP3      3386            0.0000000000
     23957      3486  TIP3      H1             20.9579329744       -8.7225974972      -23.0357280853  TIP3      3386            0.0000000000
     23958      3486  TIP3      H2             20.7787652857       -7.9170804141      -21.7648667343  TIP3      3386            0.0000000000
     23959      3487  TIP3      OH2            15.6749557196      -10.1371661900      -25.4055630117  TIP3      3387            0.0000000000
     23960      3487  TIP3      H1             16.4981194868      -10.5417410105      -25.0753413103  TIP3      3387            0.0000000000
     23961      3487  TIP3      H2             15.7563027027      -10.2779919270      -26.3603835024  TIP3      3387            0.0000000000
     23962      3488  TIP3      OH2            15.5537661346       -8.5109124756      -23.1460648631  TIP3      3388            0.0000000000
     23963      3488  TIP3      H1             15.3244251131       -9.0988313576      -23.8911499977  TIP3      3388            0.0000000000
     23964      3488  TIP3      H2             14.7301966196       -8.0590915512      -22.8891075448  TIP3      3388            0.0000000000
     23965      3489  TIP3      OH2            15.9059303227        7.7956596218      -40.0339301620  TIP3      3389            0.0000000000
     23966      3489  TIP3      H1             16.8156369867        8.1138529595      -39.9148894357  TIP3      3389            0.0000000000
     23967      3489  TIP3      H2             15.8334858778        7.8368328356      -41.0108293378  TIP3      3389            0.0000000000
     23968      3490  TIP3      OH2             9.4052080083        2.9584988561      -40.3105630521  TIP3      3390            0.0000000000
     23969      3490  TIP3      H1             10.2989866885        3.3465415388      -40.1929714921  TIP3      3390            0.0000000000
     23970      3490  TIP3      H2              9.5684289781        2.5295907685      -41.1685242362  TIP3      3390            0.0000000000
     23971      3491  TIP3      OH2             8.6051238039        7.1347860738      -35.5656093845  TIP3      3391            0.0000000000
     23972      3491  TIP3      H1              7.6634192527        6.9492111261      -35.7875174009  TIP3      3391            0.0000000000
     23973      3491  TIP3      H2              8.5337825748        7.7654038809      -34.8132773892  TIP3      3391            0.0000000000
     23974      3492  TIP3      OH2             9.4648864093        6.0747127961      -32.9896725909  TIP3      3392            0.0000000000
     23975      3492  TIP3      H1              8.6089025223        5.8080435730      -32.6152004367  TIP3      3392            0.0000000000
     23976      3492  TIP3      H2              9.4334224464        7.0467008177      -32.8447226592  TIP3      3392            0.0000000000
     23977      3493  TIP3      OH2            26.5878188199        7.4821066657      -30.3983560436  TIP3      3393            0.0000000000
     23978      3493  TIP3      H1             26.7580761166        7.7285994688      -29.4748116703  TIP3      3393            0.0000000000
     23979      3493  TIP3      H2             27.4788865786        7.6561284029      -30.7633856737  TIP3      3393            0.0000000000
     23980      3494  TIP3      OH2            26.0577237016        6.6487419779      -27.7324358819  TIP3      3394            0.0000000000
     23981      3494  TIP3      H1             25.5495706508        5.9950056804      -28.2644442548  TIP3      3394            0.0000000000
     23982      3494  TIP3      H2             26.4274451187        6.0400430209      -27.0526390875  TIP3      3394            0.0000000000
     23983      3495  TIP3      OH2            24.5359792642        2.3616853354      -22.9384287373  TIP3      3395            0.0000000000
     23984      3495  TIP3      H1             24.1657334692        1.5791843716      -22.4809676752  TIP3      3395            0.0000000000
     23985      3495  TIP3      H2             24.7652760847        2.9116160081      -22.1712975323  TIP3      3395            0.0000000000
     23986      3496  TIP3      OH2            25.6182935132        0.8243323072      -37.6253317322  TIP3      3396            0.0000000000
     23987      3496  TIP3      H1             26.4185174464        1.3960894410      -37.4809379563  TIP3      3396            0.0000000000
     23988      3496  TIP3      H2             25.7353345034        0.1979280447      -36.8889856889  TIP3      3396            0.0000000000
     23989      3497  TIP3      OH2            26.4232620355       -1.1747120092      -35.6236105831  TIP3      3397            0.0000000000
     23990      3497  TIP3      H1             25.6317333735       -1.4856383062      -35.1276878948  TIP3      3397            0.0000000000
     23991      3497  TIP3      H2             27.0304014491       -0.9818750951      -34.8801074020  TIP3      3397            0.0000000000
     23992      3498  TIP3      OH2            26.2349818709        1.4744643917      -30.4401128766  TIP3      3398            0.0000000000
     23993      3498  TIP3      H1             26.6156779589        0.7037983217      -30.9140180395  TIP3      3398            0.0000000000
     23994      3498  TIP3      H2             26.7633719778        2.2070970966      -30.7930157378  TIP3      3398            0.0000000000
     23995      3499  TIP3      OH2            24.6552563584        4.2242883047      -28.6004902019  TIP3      3399            0.0000000000
     23996      3499  TIP3      H1             23.9803116184        4.6858873267      -28.0507056012  TIP3      3399            0.0000000000
     23997      3499  TIP3      H2             24.1601411587        3.9122966495      -29.3759992600  TIP3      3399            0.0000000000
     23998      3500  TIP3      OH2            26.5648647138       -1.1312129092      -39.5483623618  TIP3      3400            0.0000000000
     23999      3500  TIP3      H1             25.7394659402       -1.2737313570      -40.0365374236  TIP3      3400            0.0000000000
     24000      3500  TIP3      H2             26.3155237208       -0.4150063137      -38.9283147895  TIP3      3400            0.0000000000
     24001      3501  TIP3      OH2            24.8609295676       -4.3167364432      -40.4892261998  TIP3      3401            0.0000000000
     24002      3501  TIP3      H1             24.9692276864       -3.8111493536      -41.3049131276  TIP3      3401            0.0000000000
     24003      3501  TIP3      H2             24.6426465782       -5.2040170708      -40.8338731193  TIP3      3401            0.0000000000
     24004      3502  TIP3      OH2            24.3148967948       -2.4003905978      -34.5690406858  TIP3      3402            0.0000000000
     24005      3502  TIP3      H1             23.9017418894       -3.1432322447      -35.0494563960  TIP3      3402            0.0000000000
     24006      3502  TIP3      H2             23.8205864748       -2.4546632397      -33.7180576155  TIP3      3402            0.0000000000
     24007      3503  TIP3      OH2             8.9385660287       -0.4060359132      -30.6488000501  TIP3      3403            0.0000000000
     24008      3503  TIP3      H1              8.9699880936       -0.6932923495      -31.5886326567  TIP3      3403            0.0000000000
     24009      3503  TIP3      H2              9.8691328680       -0.5984031981      -30.3738519572  TIP3      3403            0.0000000000
     24010      3504  TIP3      OH2            25.1809621005       -0.6215763475      -24.8607438115  TIP3      3404            0.0000000000
     24011      3504  TIP3      H1             25.5778975123       -1.5200645369      -24.9499810156  TIP3      3404            0.0000000000
     24012      3504  TIP3      H2             25.8059342011       -0.0474585272      -25.3316764034  TIP3      3404            0.0000000000
     24013      3505  TIP3      OH2            26.3137805990       -2.9856080714      -25.1256270146  TIP3      3405            0.0000000000
     24014      3505  TIP3      H1             25.3710009141       -3.2578014578      -24.9591053561  TIP3      3405            0.0000000000
     24015      3505  TIP3      H2             26.7054837992       -3.8652241173      -24.9167238745  TIP3      3405            0.0000000000
     24016      3506  TIP3      OH2            24.0079535392       -6.6630849180      -41.7650239284  TIP3      3406            0.0000000000
     24017      3506  TIP3      H1             24.4073881925       -7.3116742900      -41.1433097573  TIP3      3406            0.0000000000
     24018      3506  TIP3      H2             23.0883825041       -6.6841056795      -41.4674665900  TIP3      3406            0.0000000000
     24019      3507  TIP3      OH2            23.2821100689       -4.8170509500      -36.2796583765  TIP3      3407            0.0000000000
     24020      3507  TIP3      H1             23.4926272384       -5.7725031608      -36.1617009977  TIP3      3407            0.0000000000
     24021      3507  TIP3      H2             24.0216078891       -4.5868564010      -36.8878207478  TIP3      3407            0.0000000000
     24022      3508  TIP3      OH2            24.0189033507       -4.4347315458      -31.1553727922  TIP3      3408            0.0000000000
     24023      3508  TIP3      H1             25.0026720660       -4.4935643955      -31.1142115169  TIP3      3408            0.0000000000
     24024      3508  TIP3      H2             23.8503660235       -4.3500497961      -30.1976978069  TIP3      3408            0.0000000000
     24025      3509  TIP3      OH2            24.2520687670       -3.7471175379      -28.2761316721  TIP3      3409            0.0000000000
     24026      3509  TIP3      H1             23.4886875538       -3.4974041439      -27.7053237765  TIP3      3409            0.0000000000
     24027      3509  TIP3      H2             24.7150327617       -2.8820709670      -28.3258523715  TIP3      3409            0.0000000000
     24028      3510  TIP3      OH2             9.0236019978       -5.6843375852      -24.7943045729  TIP3      3410            0.0000000000
     24029      3510  TIP3      H1              9.4189178115       -5.8442901092      -23.9191504402  TIP3      3410            0.0000000000
     24030      3510  TIP3      H2              8.6835863152       -6.5884294476      -25.0097096232  TIP3      3410            0.0000000000
     24031      3511  TIP3      OH2            26.5218014863       -9.7071668396      -22.7428634785  TIP3      3411            0.0000000000
     24032      3511  TIP3      H1             26.8714122678      -10.5287809631      -23.1365395968  TIP3      3411            0.0000000000
     24033      3511  TIP3      H2             26.6551319668       -9.1393642864      -23.5382871711  TIP3      3411            0.0000000000
     24034      3512  TIP3      OH2            24.1503402636       -7.4307401486      -36.2657589802  TIP3      3412            0.0000000000
     24035      3512  TIP3      H1             24.4696616366       -7.8943704791      -35.4583668275  TIP3      3412            0.0000000000
     24036      3512  TIP3      H2             23.6262463863       -8.1329900648      -36.6784424620  TIP3      3412            0.0000000000
     24037      3513  TIP3      OH2             9.8201227173       -6.9579003662      -31.7385108998  TIP3      3413            0.0000000000
     24038      3513  TIP3      H1             10.2202839065       -7.8529132149      -31.7130623565  TIP3      3413            0.0000000000
     24039      3513  TIP3      H2             10.5769727651       -6.3894939778      -31.5203481238  TIP3      3413            0.0000000000
     24040      3514  TIP3      OH2             8.4534591798       -4.1108528163      -30.5556174513  TIP3      3414            0.0000000000
     24041      3514  TIP3      H1              8.9932984449       -4.3220478271      -31.3432842578  TIP3      3414            0.0000000000
     24042      3514  TIP3      H2              8.8125124834       -3.2415771122      -30.3504801674  TIP3      3414            0.0000000000
     24043      3515  TIP3      OH2            26.3315521163       -8.1629492219      -24.9260254298  TIP3      3415            0.0000000000
     24044      3515  TIP3      H1             25.5909226692       -7.5220179715      -24.9704402079  TIP3      3415            0.0000000000
     24045      3515  TIP3      H2             26.0159009492       -8.7082396622      -25.6754990784  TIP3      3415            0.0000000000
     24046      3516  TIP3      OH2            25.7849571434       -7.9207252129      -40.1951461539  TIP3      3416            0.0000000000
     24047      3516  TIP3      H1             26.1590265463       -7.5728008824      -41.0383252306  TIP3      3416            0.0000000000
     24048      3516  TIP3      H2             26.2850398596       -7.4019494956      -39.5355671741  TIP3      3416            0.0000000000
     24049      3517  TIP3      OH2             8.3292359650       -7.7574815220      -36.5456496694  TIP3      3417            0.0000000000
     24050      3517  TIP3      H1              7.4260945927       -7.5828036922      -36.8210430503  TIP3      3417            0.0000000000
     24051      3517  TIP3      H2              8.8222239787       -7.3624220233      -37.2887401378  TIP3      3417            0.0000000000
     24052      3518  TIP3      OH2            23.3272539270        7.0226452277      -34.8579256949  TIP3      3418            0.0000000000
     24053      3518  TIP3      H1             24.1444467566        6.9596455489      -35.3940367672  TIP3      3418            0.0000000000
     24054      3518  TIP3      H2             23.6582248290        7.4586491834      -34.0512532478  TIP3      3418            0.0000000000
     24055      3519  TIP3      OH2             8.5830351279       -9.2737936832      -28.2908074299  TIP3      3419            0.0000000000
     24056      3519  TIP3      H1              7.8413865136       -9.5644603989      -27.7229947687  TIP3      3419            0.0000000000
     24057      3519  TIP3      H2              8.3019901126       -8.4013952935      -28.5900130226  TIP3      3419            0.0000000000
     24058      3520  TIP3      OH2            10.6629580794        3.8446001551      -24.3528496062  TIP3      3420            0.0000000000
     24059      3520  TIP3      H1              9.9729962510        3.2168791849      -24.6147686423  TIP3      3420            0.0000000000
     24060      3520  TIP3      H2             11.2179840933        3.2216261729      -23.8473422738  TIP3      3420            0.0000000000
     24061      3521  TIP3      OH2            13.5967378087        5.4038691766      -28.0270488127  TIP3      3421            0.0000000000
     24062      3521  TIP3      H1             13.4485291462        6.3472878316      -28.2949131576  TIP3      3421            0.0000000000
     24063      3521  TIP3      H2             14.5775068308        5.3895152390      -28.1109636825  TIP3      3421            0.0000000000
     24064      3522  TIP3      OH2            17.6807902858        6.9591998502      -25.3255551420  TIP3      3422            0.0000000000
     24065      3522  TIP3      H1             17.8343590403        6.5836752051      -24.4344949501  TIP3      3422            0.0000000000
     24066      3522  TIP3      H2             18.6078862841        7.1550541979      -25.5878593862  TIP3      3422            0.0000000000
     24067      3523  TIP3      OH2            20.1052902466        7.9617801957      -25.8027418685  TIP3      3423            0.0000000000
     24068      3523  TIP3      H1             20.8545005049        7.6741936238      -26.3382125491  TIP3      3423            0.0000000000
     24069      3523  TIP3      H2             20.5213358204        8.2401133455      -24.9529216088  TIP3      3423            0.0000000000
     24070      3524  TIP3      OH2            24.9631952694       -9.6694409402      -26.7758158150  TIP3      3424            0.0000000000
     24071      3524  TIP3      H1             24.0803816113       -9.4209090772      -27.0881300881  TIP3      3424            0.0000000000
     24072      3524  TIP3      H2             25.0583879595      -10.5903127384      -27.0988036586  TIP3      3424            0.0000000000
     24073      3525  TIP3      OH2            11.0397377230        8.7522675330      -27.7875103325  TIP3      3425            0.0000000000
     24074      3525  TIP3      H1             10.4264511794        9.2265014306      -28.3965190366  TIP3      3425            0.0000000000
     24075      3525  TIP3      H2             10.4572223335        8.6202907761      -27.0344822386  TIP3      3425            0.0000000000
     24076      3526  TIP3      OH2            13.2759468982        7.8831013500      -28.9948338766  TIP3      3426            0.0000000000
     24077      3526  TIP3      H1             12.3956835687        8.1932514361      -28.6860279227  TIP3      3426            0.0000000000
     24078      3526  TIP3      H2             13.3057635266        8.2773153761      -29.8755070922  TIP3      3426            0.0000000000
     24079      3527  TIP3      OH2            18.1818279522        7.6704805577      -29.6469470261  TIP3      3427            0.0000000000
     24080      3527  TIP3      H1             17.6383390239        8.0050755128      -30.3750960820  TIP3      3427            0.0000000000
     24081      3527  TIP3      H2             18.2902942955        8.4715663434      -29.0953925880  TIP3      3427            0.0000000000
     24082      3528  TIP3      OH2            20.1113424067        6.3021158767      -28.4216546409  TIP3      3428            0.0000000000
     24083      3528  TIP3      H1             19.4237211330        6.7699507655      -28.9419628860  TIP3      3428            0.0000000000
     24084      3528  TIP3      H2             20.8823064850        6.8421231607      -28.6899177680  TIP3      3428            0.0000000000
     24085      3529  TIP3      OH2            22.4892326971        7.6705364614      -28.8723108531  TIP3      3429            0.0000000000
     24086      3529  TIP3      H1             22.9516607733        8.5265758014      -28.9825665370  TIP3      3429            0.0000000000
     24087      3529  TIP3      H2             22.8784869505        7.1629795959      -29.6254111487  TIP3      3429            0.0000000000
     24088      3530  TIP3      OH2            10.9029552351        7.0636507863      -30.6885026524  TIP3      3430            0.0000000000
     24089      3530  TIP3      H1             10.7071329019        6.2637207042      -30.1627523371  TIP3      3430            0.0000000000
     24090      3530  TIP3      H2             11.5463392069        6.7160572202      -31.3479968884  TIP3      3430            0.0000000000
     24091      3531  TIP3      OH2            12.8454613940        6.1365972750      -32.3525065523  TIP3      3431            0.0000000000
     24092      3531  TIP3      H1             12.4685153187        5.2578752802      -32.1676992765  TIP3      3431            0.0000000000
     24093      3531  TIP3      H2             13.6531301974        6.0964680798      -31.7927461879  TIP3      3431            0.0000000000
     24094      3532  TIP3      OH2            15.1420583363        5.8500985957      -30.9981534768  TIP3      3432            0.0000000000
     24095      3532  TIP3      H1             15.3960646571        4.9127114068      -31.1308197896  TIP3      3432            0.0000000000
     24096      3532  TIP3      H2             15.2677495454        5.9651942215      -30.0416310105  TIP3      3432            0.0000000000
     24097      3533  TIP3      OH2            17.5299338244       -8.8682922206      -32.7094295390  TIP3      3433            0.0000000000
     24098      3533  TIP3      H1             17.1494011441       -9.5521947973      -32.1050369355  TIP3      3433            0.0000000000
     24099      3533  TIP3      H2             18.4592070087       -9.1291839494      -32.7525934656  TIP3      3433            0.0000000000
     24100      3534  TIP3      OH2            23.6049768544      -10.2470290051      -32.5899891889  TIP3      3434            0.0000000000
     24101      3534  TIP3      H1             24.2500923961       -9.6514482212      -33.0390937993  TIP3      3434            0.0000000000
     24102      3534  TIP3      H2             22.7492629836       -9.8832741131      -32.9187519341  TIP3      3434            0.0000000000
     24103      3535  TIP3      OH2            25.2492823250       -8.8752257376      -34.2725486255  TIP3      3435            0.0000000000
     24104      3535  TIP3      H1             25.7273139378       -9.7266569416      -34.4395886017  TIP3      3435            0.0000000000
     24105      3535  TIP3      H2             25.9784586029       -8.3025046312      -33.9478063272  TIP3      3435            0.0000000000
     24106      3536  TIP3      OH2            10.9122133707      -10.0798584561      -34.3675839081  TIP3      3436            0.0000000000
     24107      3536  TIP3      H1             10.1239313031      -10.1684945179      -34.9360534816  TIP3      3436            0.0000000000
     24108      3536  TIP3      H2             11.3054144929      -10.9859834954      -34.4229443312  TIP3      3436            0.0000000000
     24109      3537  TIP3      OH2             9.9017334489       -9.9277490406      -38.8576489442  TIP3      3437            0.0000000000
     24110      3537  TIP3      H1             10.1989485880       -9.1759177690      -39.4134215701  TIP3      3437            0.0000000000
     24111      3537  TIP3      H2              9.1165656499       -9.5593443063      -38.4269524689  TIP3      3437            0.0000000000
     24112      3538  TIP3      OH2            15.5260192319      -10.3780056411      -34.6954310835  TIP3      3438            0.0000000000
     24113      3538  TIP3      H1             15.1938030627      -10.3451233610      -35.6057555796  TIP3      3438            0.0000000000
     24114      3538  TIP3      H2             16.4846770041      -10.4271649772      -34.8636160395  TIP3      3438            0.0000000000
     24115      3539  TIP3      OH2            21.0840265030       -9.4766819518      -33.3822246755  TIP3      3439            0.0000000000
     24116      3539  TIP3      H1             20.6108441738       -9.2198314796      -34.1809416877  TIP3      3439            0.0000000000
     24117      3539  TIP3      H2             20.5877820685      -10.2744166719      -33.0926223611  TIP3      3439            0.0000000000
     24118      3540  TIP3      OH2            22.5564445912       -9.7894233228      -37.6380027873  TIP3      3440            0.0000000000
     24119      3540  TIP3      H1             21.8318327090       -9.6522144798      -38.2592450360  TIP3      3440            0.0000000000
     24120      3540  TIP3      H2             22.1641401454      -10.4746102774      -37.0512797744  TIP3      3440            0.0000000000
     24121      3541  TIP3      OH2             9.5166984646        6.0428865981      -38.2864480129  TIP3      3441            0.0000000000
     24122      3541  TIP3      H1              8.6406975536        6.1327454841      -38.7141203772  TIP3      3441            0.0000000000
     24123      3541  TIP3      H2              9.5395348553        6.8580993234      -37.7619429421  TIP3      3441            0.0000000000
     24124      3542  TIP3      OH2            11.0389776780       -7.7496280240      -40.1196694243  TIP3      3442            0.0000000000
     24125      3542  TIP3      H1             11.5419273301       -8.0671078154      -40.8830201799  TIP3      3442            0.0000000000
     24126      3542  TIP3      H2             11.7392530884       -7.4843577931      -39.5007212099  TIP3      3442            0.0000000000
     24127      3543  TIP3      OH2            16.5688987803       -7.3726919266      -37.9338044898  TIP3      3443            0.0000000000
     24128      3543  TIP3      H1             17.3512783363       -7.8101440474      -37.5667108777  TIP3      3443            0.0000000000
     24129      3543  TIP3      H2             16.6883634745       -6.4967199457      -37.5350682833  TIP3      3443            0.0000000000
     24130      3544  TIP3      OH2            18.7328408498        7.9960635293      -39.8228104377  TIP3      3444            0.0000000000
     24131      3544  TIP3      H1             19.6925996464        7.8254784993      -39.8638412158  TIP3      3444            0.0000000000
     24132      3544  TIP3      H2             18.4283108755        7.1385242086      -40.1815435397  TIP3      3444            0.0000000000
     24133      3545  TIP3      OH2            25.5242015259        6.7325884793      -36.5855181861  TIP3      3445            0.0000000000
     24134      3545  TIP3      H1             25.0778558248        6.0152462326      -37.1032036702  TIP3      3445            0.0000000000
     24135      3545  TIP3      H2             25.6105461008        7.4364884087      -37.2553758400  TIP3      3445            0.0000000000
     24136      3546  TIP3      OH2            10.1532586516       -8.9857563133      -25.6485679593  TIP3      3446            0.0000000000
     24137      3546  TIP3      H1              9.6023040394       -9.7716870372      -25.4624299987  TIP3      3446            0.0000000000
     24138      3546  TIP3      H2             10.5200451925       -8.7897649665      -24.7679828016  TIP3      3446            0.0000000000
     24139      3547  TIP3      OH2            11.5611321834        7.4277810273      -40.9080094329  TIP3      3447            0.0000000000
     24140      3547  TIP3      H1             11.1773195889        7.9223396253      -40.1675954228  TIP3      3447            0.0000000000
     24141      3547  TIP3      H2             11.8908728859        6.6509319474      -40.4451704063  TIP3      3447            0.0000000000
     24142      3548  TIP3      OH2            21.3505976464      -10.4820168703      -23.4940153506  TIP3      3448            0.0000000000
     24143      3548  TIP3      H1             21.0168187517      -11.1123932863      -22.8515443592  TIP3      3448            0.0000000000
     24144      3548  TIP3      H2             22.3192190320      -10.6361969025      -23.5714931148  TIP3      3448            0.0000000000
     24145      3549  TIP3      OH2            24.6537612224        5.4534827315      -25.0880393427  TIP3      3449            0.0000000000
     24146      3549  TIP3      H1             24.1105940919        5.6127803160      -25.8935158016  TIP3      3449            0.0000000000
     24147      3549  TIP3      H2             24.5666382434        6.3262565891      -24.6701259850  TIP3      3449            0.0000000000
     24148      3550  TIP3      OH2            27.4212875139       -3.7783877651      -36.0525026641  TIP3      3450            0.0000000000
     24149      3550  TIP3      H1             27.1499869527       -2.8789302747      -35.7856269043  TIP3      3450            0.0000000000
     24150      3550  TIP3      H2             26.5828457183       -4.2530057735      -35.9920753820  TIP3      3450            0.0000000000
     24151      3551  TIP3      OH2            28.1232928093       -1.1286743398      -33.5088429356  TIP3      3451            0.0000000000
     24152      3551  TIP3      H1             28.1098704999       -2.1111923839      -33.5353380976  TIP3      3451            0.0000000000
     24153      3551  TIP3      H2             29.0847147752       -0.9667432311      -33.5121169214  TIP3      3451            0.0000000000
     24154      3552  TIP3      OH2            28.3730214610       -3.8177899286      -33.1323203208  TIP3      3452            0.0000000000
     24155      3552  TIP3      H1             29.0098660945       -3.7598355746      -32.3899752637  TIP3      3452            0.0000000000
     24156      3552  TIP3      H2             28.8511017273       -4.4034727358      -33.7313287918  TIP3      3452            0.0000000000
     24157      3553  TIP3      OH2            27.9751057863        2.0457223679      -37.1483832630  TIP3      3453            0.0000000000
     24158      3553  TIP3      H1             28.4053208911        2.2107560667      -37.9973267674  TIP3      3453            0.0000000000
     24159      3553  TIP3      H2             28.2949798418        2.8179574303      -36.6404974690  TIP3      3453            0.0000000000
     24160      3554  TIP3      OH2            27.5742722377        1.0372325642      -27.9378918962  TIP3      3454            0.0000000000
     24161      3554  TIP3      H1             26.9130628039        1.1519828026      -28.6544629374  TIP3      3454            0.0000000000
     24162      3554  TIP3      H2             27.8907091225        0.1459534836      -28.1492085471  TIP3      3454            0.0000000000
     24163      3555  TIP3      OH2            27.2620143804        4.0517749668      -31.5178004938  TIP3      3455            0.0000000000
     24164      3555  TIP3      H1             28.2101252432        3.9457948685      -31.6985969653  TIP3      3455            0.0000000000
     24165      3555  TIP3      H2             27.2632786989        4.6039675177      -30.7157691888  TIP3      3455            0.0000000000
     24166      3556  TIP3      OH2            27.0659576560       -6.8768658389      -33.8652918834  TIP3      3456            0.0000000000
     24167      3556  TIP3      H1             27.3533393963       -6.7740408803      -32.9449310021  TIP3      3456            0.0000000000
     24168      3556  TIP3      H2             27.6893972335       -6.2849056562      -34.3072036923  TIP3      3456            0.0000000000
     24169      3557  TIP3      OH2            27.1553882060       -5.9624383585      -38.6109981010  TIP3      3457            0.0000000000
     24170      3557  TIP3      H1             27.7653403171       -5.3876430534      -39.1102088388  TIP3      3457            0.0000000000
     24171      3557  TIP3      H2             26.5709311792       -5.2898453772      -38.2253170044  TIP3      3457            0.0000000000
     24172      3558  TIP3      OH2            28.0243911587       -2.4493256303      -27.2954610081  TIP3      3458            0.0000000000
     24173      3558  TIP3      H1             27.5095949389       -2.4349819932      -26.4613723326  TIP3      3458            0.0000000000
     24174      3558  TIP3      H2             27.2859883389       -2.3515608249      -27.9382187961  TIP3      3458            0.0000000000
     24175      3559  TIP3      OH2            29.2020735671       -0.3056824490      -40.2527786881  TIP3      3459            0.0000000000
     24176      3559  TIP3      H1             29.3309987746        0.5628204257      -39.8624197036  TIP3      3459            0.0000000000
     24177      3559  TIP3      H2             28.2782077796       -0.5351846329      -39.9969461690  TIP3      3459            0.0000000000
     24178      3560  TIP3      OH2            28.8837457117        4.8953903147      -29.1223955903  TIP3      3460            0.0000000000
     24179      3560  TIP3      H1             29.5441123159        4.4343863116      -28.5895581123  TIP3      3460            0.0000000000
     24180      3560  TIP3      H2             28.2524216149        5.1813045853      -28.4450340804  TIP3      3460            0.0000000000
     24181      3561  TIP3      OH2            28.8076196027       -4.1764110150      -40.2534043470  TIP3      3461            0.0000000000
     24182      3561  TIP3      H1             28.7355994493       -3.2099621643      -40.2788832567  TIP3      3461            0.0000000000
     24183      3561  TIP3      H2             28.7242786831       -4.3991452722      -41.1959336252  TIP3      3461            0.0000000000
     24184      3562  TIP3      OH2            28.8916981085        4.5209067123      -36.2810544020  TIP3      3462            0.0000000000
     24185      3562  TIP3      H1             28.0424232110        4.8339875259      -35.9406130144  TIP3      3462            0.0000000000
     24186      3562  TIP3      H2             28.9476541474        5.1461657155      -37.0375911779  TIP3      3462            0.0000000000
     24187      3563  TIP3      OH2            27.5349716835        7.5520135547      -24.5177418121  TIP3      3463            0.0000000000
     24188      3563  TIP3      H1             28.4089740239        7.6588391126      -24.1035223144  TIP3      3463            0.0000000000
     24189      3563  TIP3      H2             27.7301380484        6.8920217769      -25.1963109458  TIP3      3463            0.0000000000
     24190      3564  TIP3      OH2            28.0775608834        0.5075321244      -23.2657064060  TIP3      3464            0.0000000000
     24191      3564  TIP3      H1             27.8062231746       -0.3544312596      -23.6135517877  TIP3      3464            0.0000000000
     24192      3564  TIP3      H2             27.6487919523        1.0964617280      -23.9202527638  TIP3      3464            0.0000000000
     24193      3565  TIP3      OH2            29.3818374704       -1.8883949306      -23.8586589793  TIP3      3465            0.0000000000
     24194      3565  TIP3      H1             29.2767444524       -2.6455586702      -24.4390705010  TIP3      3465            0.0000000000
     24195      3565  TIP3      H2             28.8094062934       -2.1212714555      -23.1140018266  TIP3      3465            0.0000000000
     24196      3566  TIP3      OH2            28.0288432722        3.0489918567      -40.1317567622  TIP3      3466            0.0000000000
     24197      3566  TIP3      H1             28.9975969727        3.0383677386      -39.9898368425  TIP3      3466            0.0000000000
     24198      3566  TIP3      H2             28.0309121174        2.6802490016      -41.0441503682  TIP3      3466            0.0000000000
     24199      3567  TIP3      OH2            26.6951775064        7.8511073817      -34.5710508158  TIP3      3467            0.0000000000
     24200      3567  TIP3      H1             26.2181318108        7.2580336807      -35.2088373625  TIP3      3467            0.0000000000
     24201      3567  TIP3      H2             27.2071529679        7.2043441855      -34.0330066204  TIP3      3467            0.0000000000
     24202      3568  TIP3      OH2            28.0441482682        6.0521705153      -33.1868078792  TIP3      3468            0.0000000000
     24203      3568  TIP3      H1             27.5267625662        5.2863184785      -32.8599032943  TIP3      3468            0.0000000000
     24204      3568  TIP3      H2             28.3728119970        6.4644107320      -32.3579643551  TIP3      3468            0.0000000000
     24205      3569  TIP3      OH2            27.7562196092       -0.7244066788      -30.7701715738  TIP3      3469            0.0000000000
     24206      3569  TIP3      H1             27.9381201654       -0.9154287618      -31.7120957112  TIP3      3469            0.0000000000
     24207      3569  TIP3      H2             28.6690849374       -0.7327497966      -30.4044385489  TIP3      3469            0.0000000000
     24208      3570  TIP3      OH2            27.3538980289       -5.4224339388      -24.8978821499  TIP3      3470            0.0000000000
     24209      3570  TIP3      H1             28.2308825186       -5.4789758922      -25.3241941541  TIP3      3470            0.0000000000
     24210      3570  TIP3      H2             27.0570885343       -6.3492537996      -24.9497045234  TIP3      3470            0.0000000000
     24211      3571  TIP3      OH2            28.3881627274       -7.0144612871      -31.2339692752  TIP3      3471            0.0000000000
     24212      3571  TIP3      H1             28.4533054909       -7.9646999711      -31.3863628335  TIP3      3471            0.0000000000
     24213      3571  TIP3      H2             29.3296872784       -6.7526482294      -31.2685144317  TIP3      3471            0.0000000000
     24214      3572  TIP3      OH2            26.6736174238       -4.0590968506      -30.9674855389  TIP3      3472            0.0000000000
     24215      3572  TIP3      H1             27.0562325261       -3.9667323922      -31.8635813053  TIP3      3472            0.0000000000
     24216      3572  TIP3      H2             27.4655632877       -3.8501880319      -30.4419771784  TIP3      3472            0.0000000000
     24217      3573  TIP3      OH2            27.3009432724       -8.2991345618      -36.9656950800  TIP3      3473            0.0000000000
     24218      3573  TIP3      H1             26.5496538863       -8.2516646012      -36.3566678651  TIP3      3473            0.0000000000
     24219      3573  TIP3      H2             27.1836262837       -7.5018597251      -37.5250397213  TIP3      3473            0.0000000000
     24220      3574  TIP3      OH2            27.0497648039       -9.0779627280      -28.4356585359  TIP3      3474            0.0000000000
     24221      3574  TIP3      H1             26.3643108597       -9.2890048740      -27.7700208236  TIP3      3474            0.0000000000
     24222      3574  TIP3      H2             26.6380528649       -8.3982110681      -28.9899349676  TIP3      3474            0.0000000000
     24223      3575  TIP3      OH2           -29.7722469104        7.2649623935      -30.9557974136  TIP3      3475            0.0000000000
     24224      3575  TIP3      H1            -29.8246508870        6.7044872412      -30.1597710492  TIP3      3475            0.0000000000
     24225      3575  TIP3      H2            -28.7899365208        7.3404720073      -31.0473645245  TIP3      3475            0.0000000000
     24226      3576  TIP3      OH2            28.3504931527      -10.0071741604      -38.7362689014  TIP3      3476            0.0000000000
     24227      3576  TIP3      H1             28.8442385753       -9.1929230070      -38.8787953391  TIP3      3476            0.0000000000
     24228      3576  TIP3      H2             27.9834511808       -9.8160002256      -37.8459331706  TIP3      3476            0.0000000000
     24229      3577  TIP3      OH2            28.3922424093        6.2858164248      -38.2008194753  TIP3      3477            0.0000000000
     24230      3577  TIP3      H1             27.6110011319        6.3116232521      -38.7768519105  TIP3      3477            0.0000000000
     24231      3577  TIP3      H2             28.4174176926        7.1894278115      -37.8254649760  TIP3      3477            0.0000000000
     24232      3578  TIP3      OH2           -17.5679124191       18.3965212099      -34.6903278969  TIP3      3478            0.0000000000
     24233      3578  TIP3      H1            -17.6957484557       19.3025832309      -34.3631248306  TIP3      3478            0.0000000000
     24234      3578  TIP3      H2            -18.2774264184       18.3243392951      -35.3449589410  TIP3      3478            0.0000000000
     24235      3579  TIP3      OH2           -18.7044439507       17.2919722270      -31.4152435330  TIP3      3479            0.0000000000
     24236      3579  TIP3      H1            -18.5857843186       16.9038299810      -30.5283538937  TIP3      3479            0.0000000000
     24237      3579  TIP3      H2            -19.3728092062       16.7036909053      -31.8113473480  TIP3      3479            0.0000000000
     24238      3580  TIP3      OH2           -26.1187249665       17.4389933248      -29.7135485945  TIP3      3480            0.0000000000
     24239      3580  TIP3      H1            -26.2182177258       16.6717376744      -29.1275523487  TIP3      3480            0.0000000000
     24240      3580  TIP3      H2            -25.4410152616       17.9343141859      -29.2258140822  TIP3      3480            0.0000000000
     24241      3581  TIP3      OH2           -15.2689792734       20.3738562984      -32.7642137093  TIP3      3481            0.0000000000
     24242      3581  TIP3      H1            -15.3728198556       19.6574162973      -32.1108472447  TIP3      3481            0.0000000000
     24243      3581  TIP3      H2            -15.3678748736       21.1499414734      -32.1970768092  TIP3      3481            0.0000000000
     24244      3582  TIP3      OH2           -25.9825897857       21.8692848696      -31.5788301885  TIP3      3482            0.0000000000
     24245      3582  TIP3      H1            -26.1397244392       20.8969599883      -31.6436512193  TIP3      3482            0.0000000000
     24246      3582  TIP3      H2            -25.0176207149       21.8408078864      -31.5641307482  TIP3      3482            0.0000000000
     24247      3583  TIP3      OH2           -28.7509462034       15.5844077539      -35.4141190565  TIP3      3483            0.0000000000
     24248      3583  TIP3      H1            -29.3302683147       16.3463357555      -35.5270649154  TIP3      3483            0.0000000000
     24249      3583  TIP3      H2            -29.3544860896       14.8648547564      -35.6608166401  TIP3      3483            0.0000000000
     24250      3584  TIP3      OH2           -28.2346625581       17.5381167127      -32.9761505068  TIP3      3484            0.0000000000
     24251      3584  TIP3      H1            -27.8088889835       16.6502045428      -32.9343787035  TIP3      3484            0.0000000000
     24252      3584  TIP3      H2            -27.6154780402       18.0152758016      -33.5484681130  TIP3      3484            0.0000000000
     24253      3585  TIP3      OH2           -18.2486886526       25.5834918081      -32.9422867645  TIP3      3485            0.0000000000
     24254      3585  TIP3      H1            -17.4777144782       25.1532024745      -33.3698396262  TIP3      3485            0.0000000000
     24255      3585  TIP3      H2            -18.4843021143       24.8928331797      -32.3092183251  TIP3      3485            0.0000000000
     24256      3586  TIP3      OH2           -20.5679919597       19.8972815099      -30.5331199621  TIP3      3486            0.0000000000
     24257      3586  TIP3      H1            -20.1379008362       19.4317532589      -31.2654110673  TIP3      3486            0.0000000000
     24258      3586  TIP3      H2            -19.7886289385       20.2714732806      -30.0757749659  TIP3      3486            0.0000000000
     24259      3587  TIP3      OH2           -12.0491846400       11.4044284962      -30.2339316561  TIP3      3487            0.0000000000
     24260      3587  TIP3      H1            -12.0561417402       11.9953933016      -29.4499189758  TIP3      3487            0.0000000000
     24261      3587  TIP3      H2            -11.2474842708       11.7154846015      -30.6748684387  TIP3      3487            0.0000000000
     24262      3588  TIP3      OH2           -16.8942780297       14.6365816420      -30.0655099594  TIP3      3488            0.0000000000
     24263      3588  TIP3      H1            -16.9699714767       13.7741900737      -29.6134171373  TIP3      3488            0.0000000000
     24264      3588  TIP3      H2            -17.0201344911       14.3622112913      -30.9984404860  TIP3      3488            0.0000000000
     24265      3589  TIP3      OH2           -23.9589586304       12.3872708647      -33.4161672556  TIP3      3489            0.0000000000
     24266      3589  TIP3      H1            -23.8506712756       13.2252765337      -33.9062500047  TIP3      3489            0.0000000000
     24267      3589  TIP3      H2            -24.3494045404       11.8291653580      -34.1237106708  TIP3      3489            0.0000000000
     24268      3590  TIP3      OH2           -16.7150406189       12.5261056909      -34.8497624533  TIP3      3490            0.0000000000
     24269      3590  TIP3      H1            -16.1115909179       12.1272346890      -34.1759271397  TIP3      3490            0.0000000000
     24270      3590  TIP3      H2            -16.1498079392       13.2519351200      -35.1755325375  TIP3      3490            0.0000000000
     24271      3591  TIP3      OH2           -27.2128072230       14.8952882470      -32.5490978012  TIP3      3491            0.0000000000
     24272      3591  TIP3      H1            -26.4945606697       14.5478029179      -31.9816982030  TIP3      3491            0.0000000000
     24273      3591  TIP3      H2            -27.0363680439       14.4104864140      -33.3931023068  TIP3      3491            0.0000000000
     24274      3592  TIP3      OH2           -22.4671532469       16.6533783437      -33.0893314582  TIP3      3492            0.0000000000
     24275      3592  TIP3      H1            -21.6648547918       16.1678195427      -32.8013436613  TIP3      3492            0.0000000000
     24276      3592  TIP3      H2            -22.8750789548       15.9362598641      -33.6129037960  TIP3      3492            0.0000000000
     24277      3593  TIP3      OH2           -11.7186708008       12.8728520199      -27.9473731448  TIP3      3493            0.0000000000
     24278      3593  TIP3      H1            -12.1520814948       13.7404068304      -28.1373769402  TIP3      3493            0.0000000000
     24279      3593  TIP3      H2            -11.2257323362       13.0979968809      -27.1419286688  TIP3      3493            0.0000000000
     24280      3594  TIP3      OH2           -25.9814791678       11.5419790849      -29.2137324149  TIP3      3494            0.0000000000
     24281      3594  TIP3      H1            -25.6932458781       12.0825554988      -29.9698903982  TIP3      3494            0.0000000000
     24282      3594  TIP3      H2            -25.9071971083       12.1833088123      -28.4913269921  TIP3      3494            0.0000000000
     24283      3595  TIP3      OH2           -18.3528143947       21.0730881251      -35.5827789597  TIP3      3495            0.0000000000
     24284      3595  TIP3      H1            -18.3967227453       21.1102978818      -36.5614838304  TIP3      3495            0.0000000000
     24285      3595  TIP3      H2            -18.7707158057       21.9249419603      -35.3474840647  TIP3      3495            0.0000000000
     24286      3596  TIP3      OH2           -23.0171835628       19.0603744555      -29.4348967282  TIP3      3496            0.0000000000
     24287      3596  TIP3      H1            -23.5697408130       19.7485489663      -29.0076285612  TIP3      3496            0.0000000000
     24288      3596  TIP3      H2            -22.3000220217       19.6015173504      -29.8293390474  TIP3      3496            0.0000000000
     24289      3597  TIP3      OH2           -14.6610154074       12.0859827830      -33.1128417923  TIP3      3497            0.0000000000
     24290      3597  TIP3      H1            -15.1522221783       11.7907917073      -32.3269989254  TIP3      3497            0.0000000000
     24291      3597  TIP3      H2            -13.8624992935       12.4792506262      -32.7221771194  TIP3      3497            0.0000000000
     24292      3598  TIP3      OH2           -25.3047504391       13.2691263203      -31.3348570243  TIP3      3498            0.0000000000
     24293      3598  TIP3      H1            -24.5325712577       13.7156593697      -30.9157141877  TIP3      3498            0.0000000000
     24294      3598  TIP3      H2            -24.8554757551       12.8389577987      -32.1128718274  TIP3      3498            0.0000000000
     24295      3599  TIP3      OH2           -24.3395214204       21.2727769192      -28.4298518470  TIP3      3499            0.0000000000
     24296      3599  TIP3      H1            -24.5710204072       22.1120420678      -28.8589594526  TIP3      3499            0.0000000000
     24297      3599  TIP3      H2            -25.0894073512       21.1225957496      -27.8211074215  TIP3      3499            0.0000000000
     24298      3600  TIP3      OH2           -28.0985828198       21.1990590246      -37.3881546040  TIP3      3500            0.0000000000
     24299      3600  TIP3      H1            -28.1851039203       21.9193029029      -38.0279393875  TIP3      3500            0.0000000000
     24300      3600  TIP3      H2            -27.9104497844       21.6712359263      -36.5499153119  TIP3      3500            0.0000000000
     24301      3601  TIP3      OH2           -14.5395242996       22.2420029421      -30.4856667520  TIP3      3501            0.0000000000
     24302      3601  TIP3      H1            -15.4185795962       22.6596621617      -30.3453476991  TIP3      3501            0.0000000000
     24303      3601  TIP3      H2            -14.1954530136       22.7989698648      -31.1970803458  TIP3      3501            0.0000000000
     24304      3602  TIP3      OH2           -14.5989032805       10.8452328090      -29.6062003498  TIP3      3502            0.0000000000
     24305      3602  TIP3      H1            -15.1982689579       11.1104120060      -30.3302126481  TIP3      3502            0.0000000000
     24306      3602  TIP3      H2            -13.7257364655       10.9553070972      -30.0525914752  TIP3      3502            0.0000000000
     24307      3603  TIP3      OH2           -21.8561302195        8.8297323695      -31.8985009520  TIP3      3503            0.0000000000
     24308      3603  TIP3      H1            -22.1294099312        7.9001653169      -31.8907432431  TIP3      3503            0.0000000000
     24309      3603  TIP3      H2            -22.7282846251        9.2532971120      -31.6749226322  TIP3      3503            0.0000000000
     24310      3604  TIP3      OH2           -16.3527437327       24.1432515579      -34.1760750149  TIP3      3504            0.0000000000
     24311      3604  TIP3      H1            -15.9921438980       23.3376552971      -34.6060176253  TIP3      3504            0.0000000000
     24312      3604  TIP3      H2            -15.6982299107       24.7987252948      -34.5208732973  TIP3      3504            0.0000000000
     24313      3605  TIP3      OH2           -15.0361224600       22.0491482968      -35.4505041662  TIP3      3505            0.0000000000
     24314      3605  TIP3      H1            -15.1471269240       21.4532813571      -36.2176762541  TIP3      3505            0.0000000000
     24315      3605  TIP3      H2            -15.1720200201       21.4004551577      -34.7371016215  TIP3      3505            0.0000000000
     24316      3606  TIP3      OH2           -13.6130529251       20.8549784169      -27.0163834341  TIP3      3506            0.0000000000
     24317      3606  TIP3      H1            -13.5285914979       20.0968143189      -27.6457925211  TIP3      3506            0.0000000000
     24318      3606  TIP3      H2            -13.5137703624       21.6037556565      -27.6374312115  TIP3      3506            0.0000000000
     24319      3607  TIP3      OH2           -19.1760198651       17.6304280710      -37.4345968369  TIP3      3507            0.0000000000
     24320      3607  TIP3      H1            -19.7060425694       18.4504513792      -37.4945541688  TIP3      3507            0.0000000000
     24321      3607  TIP3      H2            -18.6892554432       17.6453095661      -38.2797910822  TIP3      3507            0.0000000000
     24322      3608  TIP3      OH2           -18.7769011246       16.6641096807      -40.2321934292  TIP3      3508            0.0000000000
     24323      3608  TIP3      H1            -17.9126000824       16.6941470690      -39.7828622205  TIP3      3508            0.0000000000
     24324      3608  TIP3      H2            -18.9284692611       15.7116286466      -40.3254624514  TIP3      3508            0.0000000000
     24325      3609  TIP3      OH2           -11.5410788799       17.2710626934      -29.0710430031  TIP3      3509            0.0000000000
     24326      3609  TIP3      H1            -12.4109491352       17.7118374964      -29.1702585732  TIP3      3509            0.0000000000
     24327      3609  TIP3      H2            -11.0458359831       17.7863914424      -29.7451161728  TIP3      3509            0.0000000000
     24328      3610  TIP3      OH2           -15.2010676808       18.1152598900      -35.9700536629  TIP3      3510            0.0000000000
     24329      3610  TIP3      H1            -16.0430875491       18.1976624309      -35.4578514406  TIP3      3510            0.0000000000
     24330      3610  TIP3      H2            -14.6914819720       17.5396503605      -35.3642151053  TIP3      3510            0.0000000000
     24331      3611  TIP3      OH2           -15.4110026204       16.2375530877      -26.9392638561  TIP3      3511            0.0000000000
     24332      3611  TIP3      H1            -15.7915354145       16.9384492386      -26.3840218204  TIP3      3511            0.0000000000
     24333      3611  TIP3      H2            -16.0326039138       16.2474257552      -27.6828105578  TIP3      3511            0.0000000000
     24334      3612  TIP3      OH2           -24.1013734834       18.5741827515      -34.1281505136  TIP3      3512            0.0000000000
     24335      3612  TIP3      H1            -24.3852690763       18.1057858851      -34.9405252293  TIP3      3512            0.0000000000
     24336      3612  TIP3      H2            -23.3712754059       18.0094846481      -33.8010592192  TIP3      3512            0.0000000000
     24337      3613  TIP3      OH2           -22.5951625189       21.8550976183      -31.7263147615  TIP3      3513            0.0000000000
     24338      3613  TIP3      H1            -22.4696688227       21.8311141379      -32.6910126175  TIP3      3513            0.0000000000
     24339      3613  TIP3      H2            -21.8376375554       21.3546754400      -31.3896584275  TIP3      3513            0.0000000000
     24340      3614  TIP3      OH2           -23.5458581558       16.8190964220      -30.6896695715  TIP3      3514            0.0000000000
     24341      3614  TIP3      H1            -23.2771561040       16.9394032150      -31.6226288040  TIP3      3514            0.0000000000
     24342      3614  TIP3      H2            -23.2648393602       17.6857287764      -30.3065270463  TIP3      3514            0.0000000000
     24343      3615  TIP3      OH2           -17.0879090991       22.9157526885      -30.0169301335  TIP3      3515            0.0000000000
     24344      3615  TIP3      H1            -17.4961171394       23.5137054514      -29.3690322622  TIP3      3515            0.0000000000
     24345      3615  TIP3      H2            -17.2613378814       22.0414003270      -29.6190639269  TIP3      3515            0.0000000000
     24346      3616  TIP3      OH2           -22.9371449511       21.9351906924      -26.1885812933  TIP3      3516            0.0000000000
     24347      3616  TIP3      H1            -23.6690994678       22.4295856447      -25.7565306356  TIP3      3516            0.0000000000
     24348      3616  TIP3      H2            -23.3703138028       21.6216944549      -27.0163229804  TIP3      3516            0.0000000000
     24349      3617  TIP3      OH2           -16.4572666029       17.3432243529      -38.2406979167  TIP3      3517            0.0000000000
     24350      3617  TIP3      H1            -15.9228510940       17.7374338656      -37.5157466718  TIP3      3517            0.0000000000
     24351      3617  TIP3      H2            -16.1881743276       17.8947357646      -39.0055799439  TIP3      3517            0.0000000000
     24352      3618  TIP3      OH2           -25.9282173400       18.4820393979      -26.6409987273  TIP3      3518            0.0000000000
     24353      3618  TIP3      H1            -25.7956608246       18.7370349610      -25.7077967032  TIP3      3518            0.0000000000
     24354      3618  TIP3      H2            -26.5829868161       17.7712061724      -26.5799430858  TIP3      3518            0.0000000000
     24355      3619  TIP3      OH2           -19.4548074200       23.7131052059      -35.2528438635  TIP3      3519            0.0000000000
     24356      3619  TIP3      H1            -18.8315886888       24.1759275504      -34.6789865856  TIP3      3519            0.0000000000
     24357      3619  TIP3      H2            -19.6938362831       24.4258772090      -35.8660599436  TIP3      3519            0.0000000000
     24358      3620  TIP3      OH2           -24.4754318287       24.0943800864      -25.3847512827  TIP3      3520            0.0000000000
     24359      3620  TIP3      H1            -24.2458743982       24.1485276883      -26.3383682515  TIP3      3520            0.0000000000
     24360      3620  TIP3      H2            -25.4265293532       23.9493817906      -25.4129361591  TIP3      3520            0.0000000000
     24361      3621  TIP3      OH2           -12.4075056099        8.8780190007      -38.3774853257  TIP3      3521            0.0000000000
     24362      3621  TIP3      H1            -13.3359989448        8.9250657152      -38.0554337530  TIP3      3521            0.0000000000
     24363      3621  TIP3      H2            -12.3662101601        9.6920450197      -38.9136843703  TIP3      3521            0.0000000000
     24364      3622  TIP3      OH2           -25.2401961469       17.4004091982      -36.4513751755  TIP3      3522            0.0000000000
     24365      3622  TIP3      H1            -25.5479826854       18.2184183577      -36.9001708237  TIP3      3522            0.0000000000
     24366      3622  TIP3      H2            -25.4890553114       16.7339128996      -37.1068284650  TIP3      3522            0.0000000000
     24367      3623  TIP3      OH2           -11.8751157995       23.2170595186      -40.2088768215  TIP3      3523            0.0000000000
     24368      3623  TIP3      H1            -11.3782183309       24.0468388925      -40.0916326719  TIP3      3523            0.0000000000
     24369      3623  TIP3      H2            -11.1369212622       22.5887772743      -40.3561947645  TIP3      3523            0.0000000000
     24370      3624  TIP3      OH2           -28.4353616308       20.3450086076      -27.4850848356  TIP3      3524            0.0000000000
     24371      3624  TIP3      H1            -29.3274161366       20.0487838261      -27.6934771449  TIP3      3524            0.0000000000
     24372      3624  TIP3      H2            -27.8990257650       19.7016979484      -27.9748658897  TIP3      3524            0.0000000000
     24373      3625  TIP3      OH2           -28.7487884384       22.8886906889      -31.1955163804  TIP3      3525            0.0000000000
     24374      3625  TIP3      H1            -27.8682880125       22.4575856807      -31.1738155172  TIP3      3525            0.0000000000
     24375      3625  TIP3      H2            -28.9169170444       23.0641108790      -30.2466821542  TIP3      3525            0.0000000000
     24376      3626  TIP3      OH2           -11.0134852495       23.5504558456      -25.7736672592  TIP3      3526            0.0000000000
     24377      3626  TIP3      H1            -11.2419225914       22.6448087373      -26.0156056242  TIP3      3526            0.0000000000
     24378      3626  TIP3      H2            -11.8216752703       23.8254022131      -25.2732529546  TIP3      3526            0.0000000000
     24379      3627  TIP3      OH2           -20.3025146298       22.6831168918      -26.2529451140  TIP3      3527            0.0000000000
     24380      3627  TIP3      H1            -20.2503363095       23.3789018256      -25.5780336939  TIP3      3527            0.0000000000
     24381      3627  TIP3      H2            -21.2479907978       22.4154675468      -26.1919691101  TIP3      3527            0.0000000000
     24382      3628  TIP3      OH2           -19.3827440653       26.6960827247      -36.6793750372  TIP3      3528            0.0000000000
     24383      3628  TIP3      H1            -19.5316468057       26.9284664280      -37.6253746686  TIP3      3528            0.0000000000
     24384      3628  TIP3      H2            -19.6383930424       27.5177981646      -36.2183114335  TIP3      3528            0.0000000000
     24385      3629  TIP3      OH2           -25.6689388012       25.4983583965      -35.0879706156  TIP3      3529            0.0000000000
     24386      3629  TIP3      H1            -25.5792960939       25.0937774666      -34.1970387830  TIP3      3529            0.0000000000
     24387      3629  TIP3      H2            -26.5625882205       25.1705262562      -35.3214490579  TIP3      3529            0.0000000000
     24388      3630  TIP3      OH2           -16.5631874416       25.9121895907      -39.8048887530  TIP3      3530            0.0000000000
     24389      3630  TIP3      H1            -16.0982779002       25.1791051187      -40.2575950274  TIP3      3530            0.0000000000
     24390      3630  TIP3      H2            -16.5233548779       25.6307980851      -38.8596108435  TIP3      3530            0.0000000000
     24391      3631  TIP3      OH2           -16.9110041007       25.6644032185      -37.1752781131  TIP3      3531            0.0000000000
     24392      3631  TIP3      H1            -17.8109601567       25.9105158092      -36.8662497015  TIP3      3531            0.0000000000
     24393      3631  TIP3      H2            -16.8091689460       24.7759714512      -36.7915880832  TIP3      3531            0.0000000000
     24394      3632  TIP3      OH2           -13.9428094352       14.6450421994      -24.9925497350  TIP3      3532            0.0000000000
     24395      3632  TIP3      H1            -14.5138996993       15.1340181150      -25.6238131938  TIP3      3532            0.0000000000
     24396      3632  TIP3      H2            -14.1235678234       13.7352467747      -25.2876535741  TIP3      3532            0.0000000000
     24397      3633  TIP3      OH2           -26.3102453323       21.5470659518      -26.1537815016  TIP3      3533            0.0000000000
     24398      3633  TIP3      H1            -26.0391500403       20.9305847660      -25.4228468737  TIP3      3533            0.0000000000
     24399      3633  TIP3      H2            -27.1459192515       21.1162183893      -26.4399497382  TIP3      3533            0.0000000000
     24400      3634  TIP3      OH2           -24.0544506233       10.0004470508      -31.1103004386  TIP3      3534            0.0000000000
     24401      3634  TIP3      H1            -25.0332537031       10.0937476561      -31.1396365037  TIP3      3534            0.0000000000
     24402      3634  TIP3      H2            -23.7938011345       10.6325409326      -30.4160064864  TIP3      3534            0.0000000000
     24403      3635  TIP3      OH2           -19.4949264741        9.0920728027      -27.3972413551  TIP3      3535            0.0000000000
     24404      3635  TIP3      H1            -19.1362759629        9.4816406393      -26.5898579983  TIP3      3535            0.0000000000
     24405      3635  TIP3      H2            -20.4389939082        9.3483169193      -27.3430607160  TIP3      3535            0.0000000000
     24406      3636  TIP3      OH2           -16.2078286400       13.6186198233      -26.3014136129  TIP3      3536            0.0000000000
     24407      3636  TIP3      H1            -16.8612487822       12.9668339617      -25.9413857486  TIP3      3536            0.0000000000
     24408      3636  TIP3      H2            -16.8022789860       14.3490053903      -26.5506643025  TIP3      3536            0.0000000000
     24409      3637  TIP3      OH2           -15.6593377109       18.6457771314      -40.3751524695  TIP3      3537            0.0000000000
     24410      3637  TIP3      H1            -15.9612518502       18.5716336892      -41.2905596696  TIP3      3537            0.0000000000
     24411      3637  TIP3      H2            -14.7034024954       18.7609509972      -40.5676474886  TIP3      3537            0.0000000000
     24412      3638  TIP3      OH2           -19.4206003042       12.2720115456      -40.2032279375  TIP3      3538            0.0000000000
     24413      3638  TIP3      H1            -20.2311670439       12.0319193637      -39.7224278171  TIP3      3538            0.0000000000
     24414      3638  TIP3      H2            -19.2587009761       11.4583556696      -40.7060852241  TIP3      3538            0.0000000000
     24415      3639  TIP3      OH2           -23.5175694264       14.4134702811      -29.7360225785  TIP3      3539            0.0000000000
     24416      3639  TIP3      H1            -24.2373017837       14.5562962945      -29.1031557373  TIP3      3539            0.0000000000
     24417      3639  TIP3      H2            -23.4919395263       15.3253539176      -30.1211149230  TIP3      3539            0.0000000000
     24418      3640  TIP3      OH2           -23.6999726725       14.7887006510      -34.7110785451  TIP3      3540            0.0000000000
     24419      3640  TIP3      H1            -24.5278632062       15.2716548039      -34.8664753561  TIP3      3540            0.0000000000
     24420      3640  TIP3      H2            -23.4486979741       14.5606007722      -35.6329168577  TIP3      3540            0.0000000000
     24421      3641  TIP3      OH2           -18.1428523298       15.5794850010      -35.8978514401  TIP3      3541            0.0000000000
     24422      3641  TIP3      H1            -18.4873847853       16.3523388044      -36.4089344001  TIP3      3541            0.0000000000
     24423      3641  TIP3      H2            -17.5496950428       15.1964092112      -36.5644553953  TIP3      3541            0.0000000000
     24424      3642  TIP3      OH2           -19.3350784224       15.9825617984      -24.7180460221  TIP3      3542            0.0000000000
     24425      3642  TIP3      H1            -19.8197788285       15.1591295018      -24.5019893980  TIP3      3542            0.0000000000
     24426      3642  TIP3      H2            -18.8560888577       16.0906487364      -23.8790904964  TIP3      3542            0.0000000000
     24427      3643  TIP3      OH2           -17.5483775855       14.8961235965      -32.8519007157  TIP3      3543            0.0000000000
     24428      3643  TIP3      H1            -17.7002046631       15.7299929333      -33.3389032360  TIP3      3543            0.0000000000
     24429      3643  TIP3      H2            -17.4083450850       14.2770497095      -33.5848974565  TIP3      3543            0.0000000000
     24430      3644  TIP3      OH2           -26.3475453661       14.6585687696      -28.3364958187  TIP3      3544            0.0000000000
     24431      3644  TIP3      H1            -25.9334865734       15.1252249332      -27.5862195310  TIP3      3544            0.0000000000
     24432      3644  TIP3      H2            -26.8802687915       13.9919961606      -27.8625167471  TIP3      3544            0.0000000000
     24433      3645  TIP3      OH2           -23.5468485287       12.2987013183      -41.4951489386  TIP3      3545            0.0000000000
     24434      3645  TIP3      H1            -23.6293098036       11.9485245198      -40.5833057717  TIP3      3545            0.0000000000
     24435      3645  TIP3      H2            -23.4586600739       13.2449902169      -41.3102284534  TIP3      3545            0.0000000000
     24436      3646  TIP3      OH2           -29.1755294858       12.3459782918      -34.2344149025  TIP3      3546            0.0000000000
     24437      3646  TIP3      H1            -28.7209973854       12.0502156269      -33.4112413346  TIP3      3546            0.0000000000
     24438      3646  TIP3      H2            -28.7029112665       11.8648673449      -34.9319789964  TIP3      3546            0.0000000000
     24439      3647  TIP3      OH2           -28.2950957263       13.2981673102      -38.2664042769  TIP3      3547            0.0000000000
     24440      3647  TIP3      H1            -27.8613442699       13.0237417614      -39.0840831436  TIP3      3547            0.0000000000
     24441      3647  TIP3      H2            -28.9792035744       13.8828603022      -38.6173002113  TIP3      3547            0.0000000000
     24442      3648  TIP3      OH2           -17.9807166550       16.9178435899      -28.6867736245  TIP3      3548            0.0000000000
     24443      3648  TIP3      H1            -17.6006411207       16.1156977994      -29.0986415836  TIP3      3548            0.0000000000
     24444      3648  TIP3      H2            -18.6046706832       16.4913614414      -28.0682104846  TIP3      3548            0.0000000000
     24445      3649  TIP3      OH2           -20.6817340191       12.2133356824      -34.0417323848  TIP3      3549            0.0000000000
     24446      3649  TIP3      H1            -21.6049057313       12.1783827893      -33.7430609114  TIP3      3549            0.0000000000
     24447      3649  TIP3      H2            -20.2498602314       11.7168111749      -33.3016953264  TIP3      3549            0.0000000000
     24448      3650  TIP3      OH2           -26.5158435847       13.8802708719      -34.9679131392  TIP3      3550            0.0000000000
     24449      3650  TIP3      H1            -27.1011782622       14.3551152444      -35.5838947320  TIP3      3550            0.0000000000
     24450      3650  TIP3      H2            -26.0078926256       13.2957033981      -35.5530740841  TIP3      3550            0.0000000000
     24451      3651  TIP3      OH2           -23.2450508658       14.2417431683      -37.3410618718  TIP3      3551            0.0000000000
     24452      3651  TIP3      H1            -22.2963397170       14.1871876645      -37.1155671287  TIP3      3551            0.0000000000
     24453      3651  TIP3      H2            -23.2920011390       14.9064492629      -38.0475839629  TIP3      3551            0.0000000000
     24454      3652  TIP3      OH2           -16.6681687828       11.6509534351      -31.1071538125  TIP3      3552            0.0000000000
     24455      3652  TIP3      H1            -17.3243374477       11.7404302956      -30.3824351580  TIP3      3552            0.0000000000
     24456      3652  TIP3      H2            -16.8892848549       10.7928051727      -31.4968873155  TIP3      3552            0.0000000000
     24457      3653  TIP3      OH2           -24.3150156878       15.9061001830      -39.9931906176  TIP3      3553            0.0000000000
     24458      3653  TIP3      H1            -25.1803093033       15.6861487162      -40.3721625246  TIP3      3553            0.0000000000
     24459      3653  TIP3      H2            -23.7165553533       15.8199501169      -40.7492609424  TIP3      3553            0.0000000000
     24460      3654  TIP3      OH2           -13.7841500764       27.2665953398      -24.5580857661  TIP3      3554            0.0000000000
     24461      3654  TIP3      H1            -13.3875118799       27.3592577215      -25.4557855310  TIP3      3554            0.0000000000
     24462      3654  TIP3      H2            -13.0136074543       27.4619964395      -23.9875393795  TIP3      3554            0.0000000000
     24463      3655  TIP3      OH2           -25.7534200329       19.8672764357      -24.1556557454  TIP3      3555            0.0000000000
     24464      3655  TIP3      H1            -25.2283359028       19.3965556509      -23.4872393355  TIP3      3555            0.0000000000
     24465      3655  TIP3      H2            -26.6023897565       19.9873007933      -23.6736554102  TIP3      3555            0.0000000000
     24466      3656  TIP3      OH2           -20.3433600659       15.0704441720      -32.1562533430  TIP3      3556            0.0000000000
     24467      3656  TIP3      H1            -19.4294202054       14.8448887947      -32.4189803595  TIP3      3556            0.0000000000
     24468      3656  TIP3      H2            -20.4560076654       14.4580873992      -31.3965208377  TIP3      3556            0.0000000000
     24469      3657  TIP3      OH2           -24.9133098551       11.1073911933      -35.5486856926  TIP3      3557            0.0000000000
     24470      3657  TIP3      H1            -25.4505947423       10.3819184669      -35.1611635058  TIP3      3557            0.0000000000
     24471      3657  TIP3      H2            -24.5373325705       10.6792416111      -36.3207858145  TIP3      3557            0.0000000000
     24472      3658  TIP3      OH2           -20.8750662339       13.4952263156      -29.9573999307  TIP3      3558            0.0000000000
     24473      3658  TIP3      H1            -21.8074764199       13.7232440433      -30.1139265432  TIP3      3558            0.0000000000
     24474      3658  TIP3      H2            -20.7444113951       13.8980301168      -29.0919363543  TIP3      3558            0.0000000000
     24475      3659  TIP3      OH2           -20.8592234092       19.7709211424      -37.6048673714  TIP3      3559            0.0000000000
     24476      3659  TIP3      H1            -21.5882130375       19.1548073680      -37.8460125209  TIP3      3559            0.0000000000
     24477      3659  TIP3      H2            -21.1619168298       20.0381133056      -36.7015827332  TIP3      3559            0.0000000000
     24478      3660  TIP3      OH2           -13.5404891843       19.1677049987      -29.0003758532  TIP3      3560            0.0000000000
     24479      3660  TIP3      H1            -12.9860300614       19.6900004859      -29.6235843760  TIP3      3560            0.0000000000
     24480      3660  TIP3      H2            -14.3638823966       19.0739920732      -29.5133286841  TIP3      3560            0.0000000000
     24481      3661  TIP3      OH2           -16.7131813558       12.7523720473      -39.9668874657  TIP3      3561            0.0000000000
     24482      3661  TIP3      H1            -17.6607801538       12.5198062786      -39.8980970866  TIP3      3561            0.0000000000
     24483      3661  TIP3      H2            -16.6841940706       13.5480421449      -39.3758611364  TIP3      3561            0.0000000000
     24484      3662  TIP3      OH2           -20.1259897659       19.9160620996      -26.8601037649  TIP3      3562            0.0000000000
     24485      3662  TIP3      H1            -19.8711100941       19.8580014226      -25.9294464584  TIP3      3562            0.0000000000
     24486      3662  TIP3      H2            -20.3198876781       20.8676402022      -26.9427245686  TIP3      3562            0.0000000000
     24487      3663  TIP3      OH2           -16.3512726045       14.7095266328      -38.2205394760  TIP3      3563            0.0000000000
     24488      3663  TIP3      H1            -15.6752103909       14.5010481661      -37.5480075708  TIP3      3563            0.0000000000
     24489      3663  TIP3      H2            -16.2773005584       15.6924516011      -38.2762230166  TIP3      3563            0.0000000000
     24490      3664  TIP3      OH2           -25.8517194879       19.2406897317      -32.1801022801  TIP3      3564            0.0000000000
     24491      3664  TIP3      H1            -25.3153548587       19.1770389312      -33.0032687752  TIP3      3564            0.0000000000
     24492      3664  TIP3      H2            -25.5964077347       18.4513034762      -31.6708101880  TIP3      3564            0.0000000000
     24493      3665  TIP3      OH2           -18.6648417699       21.1341807526      -38.2586972826  TIP3      3565            0.0000000000
     24494      3665  TIP3      H1            -19.0837717719       22.0248115188      -38.2679487995  TIP3      3565            0.0000000000
     24495      3665  TIP3      H2            -19.4488720960       20.5539125115      -38.1268089478  TIP3      3565            0.0000000000
     24496      3666  TIP3      OH2           -28.3216689940       16.9887079121      -27.0502861296  TIP3      3566            0.0000000000
     24497      3666  TIP3      H1            -28.4277814060       17.2164115171      -26.1084597546  TIP3      3566            0.0000000000
     24498      3666  TIP3      H2            -29.2665600927       17.0156179773      -27.3158317850  TIP3      3566            0.0000000000
     24499      3667  TIP3      OH2           -22.2717248348       17.4347478700      -24.9159052699  TIP3      3567            0.0000000000
     24500      3667  TIP3      H1            -22.0004428930       16.5102727088      -24.9443682351  TIP3      3567            0.0000000000
     24501      3667  TIP3      H2            -21.5290171995       17.7899646681      -24.4206924475  TIP3      3567            0.0000000000
     24502      3668  TIP3      OH2           -16.8946615377       22.5746744026      -26.7108895788  TIP3      3568            0.0000000000
     24503      3668  TIP3      H1            -17.7267266865       22.3929402993      -27.1599190780  TIP3      3568            0.0000000000
     24504      3668  TIP3      H2            -17.2231880926       23.1077981584      -25.9557910046  TIP3      3568            0.0000000000
     24505      3669  TIP3      OH2           -11.9560539719       14.8172842089      -37.7145841758  TIP3      3569            0.0000000000
     24506      3669  TIP3      H1            -12.0715706502       14.6749402976      -38.6716579723  TIP3      3569            0.0000000000
     24507      3669  TIP3      H2            -11.5371343825       15.6955006316      -37.7277910591  TIP3      3569            0.0000000000
     24508      3670  TIP3      OH2           -11.1643692976       20.3533549763      -25.7964198148  TIP3      3570            0.0000000000
     24509      3670  TIP3      H1            -12.0710696851       20.6616695810      -26.0038885985  TIP3      3570            0.0000000000
     24510      3670  TIP3      H2            -10.7023070215       20.4163114712      -26.6614159298  TIP3      3570            0.0000000000
     24511      3671  TIP3      OH2           -13.1502233880       23.4405216903      -37.7883140629  TIP3      3571            0.0000000000
     24512      3671  TIP3      H1            -13.6450483883       22.6332006293      -37.6177515952  TIP3      3571            0.0000000000
     24513      3671  TIP3      H2            -12.7495634122       23.2842384842      -38.6647920375  TIP3      3571            0.0000000000
     24514      3672  TIP3      OH2           -15.8939461333       18.2528789215      -30.8882762260  TIP3      3572            0.0000000000
     24515      3672  TIP3      H1            -16.8188099667       18.0434008832      -31.1167248234  TIP3      3572            0.0000000000
     24516      3672  TIP3      H2            -15.4205982388       17.5287689424      -31.3399751708  TIP3      3572            0.0000000000
     24517      3673  TIP3      OH2           -23.2134012574       22.6203863006      -34.3748140044  TIP3      3573            0.0000000000
     24518      3673  TIP3      H1            -22.8893112858       23.5404810907      -34.3444037922  TIP3      3573            0.0000000000
     24519      3673  TIP3      H2            -23.9863683163       22.7325057324      -34.9527709309  TIP3      3573            0.0000000000
     24520      3674  TIP3      OH2           -27.3636656267       16.9141869688      -39.9626934182  TIP3      3574            0.0000000000
     24521      3674  TIP3      H1            -26.9415478062       17.6609843718      -39.5109769817  TIP3      3574            0.0000000000
     24522      3674  TIP3      H2            -28.2833566432       17.2419567049      -39.9756297053  TIP3      3574            0.0000000000
     24523      3675  TIP3      OH2           -22.0811875122       20.2320754537      -35.2450555926  TIP3      3575            0.0000000000
     24524      3675  TIP3      H1            -22.3517727577       21.1632935437      -35.1102421981  TIP3      3575            0.0000000000
     24525      3675  TIP3      H2            -22.5996172157       19.7753806677      -34.5551155091  TIP3      3575            0.0000000000
     24526      3676  TIP3      OH2           -21.3177966761       24.3118199705      -28.7143561872  TIP3      3576            0.0000000000
     24527      3676  TIP3      H1            -20.7009718597       25.0287936497      -28.9421606060  TIP3      3576            0.0000000000
     24528      3676  TIP3      H2            -20.8195377856       23.8937736753      -27.9888758415  TIP3      3576            0.0000000000
     24529      3677  TIP3      OH2           -22.9386308107       25.1269240006      -35.5942418015  TIP3      3577            0.0000000000
     24530      3677  TIP3      H1            -23.8621222003       25.4118497061      -35.4355616489  TIP3      3577            0.0000000000
     24531      3677  TIP3      H2            -22.4628799931       25.8995086165      -35.2388475096  TIP3      3577            0.0000000000
     24532      3678  TIP3      OH2           -18.2944864242       20.4075943585      -29.1136248584  TIP3      3578            0.0000000000
     24533      3678  TIP3      H1            -18.7329008143       20.1073215443      -28.2866597114  TIP3      3578            0.0000000000
     24534      3678  TIP3      H2            -17.9705895227       19.5537510006      -29.4492865505  TIP3      3578            0.0000000000
     24535      3679  TIP3      OH2           -15.6302782873       21.7514771799      -39.7761127986  TIP3      3579            0.0000000000
     24536      3679  TIP3      H1            -15.6044594192       21.2082862219      -38.9552641766  TIP3      3579            0.0000000000
     24537      3679  TIP3      H2            -16.5166342436       21.5055279516      -40.0700221366  TIP3      3579            0.0000000000
     24538      3680  TIP3      OH2           -14.6816287752       24.9363370444      -26.9961952447  TIP3      3580            0.0000000000
     24539      3680  TIP3      H1            -15.5110199237       24.4318657153      -27.0448360813  TIP3      3580            0.0000000000
     24540      3680  TIP3      H2            -14.8531335019       25.6795949604      -27.6219988577  TIP3      3580            0.0000000000
     24541      3681  TIP3      OH2           -11.3422963183       25.9495836656      -39.8285431073  TIP3      3581            0.0000000000
     24542      3681  TIP3      H1            -11.4713112108       25.9661362287      -40.8031646147  TIP3      3581            0.0000000000
     24543      3681  TIP3      H2            -12.1219219130       26.4466785559      -39.4987183351  TIP3      3581            0.0000000000
     24544      3682  TIP3      OH2           -27.0437544112       12.4828414431      -26.6858386876  TIP3      3582            0.0000000000
     24545      3682  TIP3      H1            -27.9417819806       12.4808657707      -26.3386833097  TIP3      3582            0.0000000000
     24546      3682  TIP3      H2            -27.0478166731       11.5965318292      -27.0862253928  TIP3      3582            0.0000000000
     24547      3683  TIP3      OH2           -14.8075817501       20.2767217171      -37.5578157230  TIP3      3583            0.0000000000
     24548      3683  TIP3      H1            -14.9583726659       19.4748059376      -36.9966671109  TIP3      3583            0.0000000000
     24549      3683  TIP3      H2            -13.8845034677       20.1415037780      -37.8504233151  TIP3      3583            0.0000000000
     24550      3684  TIP3      OH2           -26.9560108257       24.2116929861      -28.8761300851  TIP3      3584            0.0000000000
     24551      3684  TIP3      H1            -26.3721341709       23.5645166541      -28.4680263462  TIP3      3584            0.0000000000
     24552      3684  TIP3      H2            -26.7106027413       25.0303610106      -28.3727071476  TIP3      3584            0.0000000000
     24553      3685  TIP3      OH2           -22.7533296120       22.1987450479      -39.0762584040  TIP3      3585            0.0000000000
     24554      3685  TIP3      H1            -22.2905850838       21.5636581772      -38.5062507651  TIP3      3585            0.0000000000
     24555      3685  TIP3      H2            -22.4922734725       23.0703390512      -38.6917711468  TIP3      3585            0.0000000000
     24556      3686  TIP3      OH2           -26.1791374279       19.3704728213      -38.2051429045  TIP3      3586            0.0000000000
     24557      3686  TIP3      H1            -26.7743456283       19.9360000787      -37.6580136922  TIP3      3586            0.0000000000
     24558      3686  TIP3      H2            -25.8466958840       20.0419264769      -38.8317277305  TIP3      3586            0.0000000000
     24559      3687  TIP3      OH2           -18.0909479092       12.2366052635      -28.6001434940  TIP3      3587            0.0000000000
     24560      3687  TIP3      H1            -18.0132095346       13.0063499492      -28.0175562864  TIP3      3587            0.0000000000
     24561      3687  TIP3      H2            -18.9751010395       11.9607461546      -28.2928410045  TIP3      3587            0.0000000000
     24562      3688  TIP3      OH2           -17.5792064895       11.5490299032      -37.3534825739  TIP3      3588            0.0000000000
     24563      3688  TIP3      H1            -16.9244641159       11.9264754493      -37.9650481814  TIP3      3588            0.0000000000
     24564      3688  TIP3      H2            -17.3336479684       11.9604960709      -36.5026920465  TIP3      3588            0.0000000000
     24565      3689  TIP3      OH2           -19.8266980439       23.6640180698      -38.3039263388  TIP3      3589            0.0000000000
     24566      3689  TIP3      H1            -20.6504180087       24.1281649292      -38.0321985222  TIP3      3589            0.0000000000
     24567      3689  TIP3      H2            -19.6944940412       24.0128537473      -39.2112677483  TIP3      3589            0.0000000000
     24568      3690  TIP3      OH2           -20.6939683989       13.5377108325      -36.3526594035  TIP3      3590            0.0000000000
     24569      3690  TIP3      H1            -20.0260256694       14.2157766473      -36.1643387705  TIP3      3590            0.0000000000
     24570      3690  TIP3      H2            -20.7510414406       13.0873153237      -35.4752568552  TIP3      3590            0.0000000000
     24571      3691  TIP3      OH2           -19.1649307844       14.8213207289      -27.1094496063  TIP3      3591            0.0000000000
     24572      3691  TIP3      H1            -19.3722881686       15.4137476117      -26.3450591080  TIP3      3591            0.0000000000
     24573      3691  TIP3      H2            -19.8984218429       14.1702940850      -27.0616881078  TIP3      3591            0.0000000000
     24574      3692  TIP3      OH2           -19.6629473228       10.2847701880      -35.8960091398  TIP3      3592            0.0000000000
     24575      3692  TIP3      H1            -20.0480302126       11.0052194030      -35.3610929606  TIP3      3592            0.0000000000
     24576      3692  TIP3      H2            -18.8880288059       10.7312055273      -36.3132586060  TIP3      3592            0.0000000000
     24577      3693  TIP3      OH2           -22.2761477212       24.7449359456      -38.2525421057  TIP3      3593            0.0000000000
     24578      3693  TIP3      H1            -22.2148315675       25.5926092213      -38.7586634694  TIP3      3593            0.0000000000
     24579      3693  TIP3      H2            -22.8128296156       25.0183664328      -37.4895219417  TIP3      3593            0.0000000000
     24580      3694  TIP3      OH2           -23.8453659267       11.8984963076      -38.8461306876  TIP3      3594            0.0000000000
     24581      3694  TIP3      H1            -23.9118626285       12.6630289153      -38.2416931814  TIP3      3594            0.0000000000
     24582      3694  TIP3      H2            -22.9940892409       11.5086256812      -38.5501112097  TIP3      3594            0.0000000000
     24583      3695  TIP3      OH2           -13.8149899956       11.9672830294      -25.9394424664  TIP3      3595            0.0000000000
     24584      3695  TIP3      H1            -14.7321542481       12.2166249764      -26.1635937953  TIP3      3595            0.0000000000
     24585      3695  TIP3      H2            -13.3603150575       12.1996370342      -26.7756074734  TIP3      3595            0.0000000000
     24586      3696  TIP3      OH2           -14.8320543064       15.9648055660      -32.4003781911  TIP3      3596            0.0000000000
     24587      3696  TIP3      H1            -15.6042435432       15.4281032990      -32.1760649081  TIP3      3596            0.0000000000
     24588      3696  TIP3      H2            -14.1346434005       15.5518142531      -31.8369976126  TIP3      3596            0.0000000000
     24589      3697  TIP3      OH2           -25.6129426227       21.8223125248      -39.8257388329  TIP3      3597            0.0000000000
     24590      3697  TIP3      H1            -24.7110460786       22.0389719527      -39.5253810276  TIP3      3597            0.0000000000
     24591      3697  TIP3      H2            -25.5525997934       22.0532342874      -40.7779094347  TIP3      3597            0.0000000000
     24592      3698  TIP3      OH2           -27.4600454199       14.3720345009      -41.1308859776  TIP3      3598            0.0000000000
     24593      3698  TIP3      H1            -27.4348685485       15.1994990225      -40.6016273854  TIP3      3598            0.0000000000
     24594      3698  TIP3      H2            -28.4089543121       14.1854142674      -41.1113180318  TIP3      3598            0.0000000000
     24595      3699  TIP3      OH2           -13.6741943271       26.0808868956      -30.5850804848  TIP3      3599            0.0000000000
     24596      3699  TIP3      H1            -13.8124344282       26.6553391875      -31.3787817673  TIP3      3599            0.0000000000
     24597      3699  TIP3      H2            -12.6942536646       26.0749858568      -30.5272590980  TIP3      3599            0.0000000000
     24598      3700  TIP3      OH2           -26.5945597277        9.5092429644      -31.6904263028  TIP3      3600            0.0000000000
     24599      3700  TIP3      H1            -26.4328098183        9.3131040699      -32.6330412662  TIP3      3600            0.0000000000
     24600      3700  TIP3      H2            -26.8005825251        8.6027612119      -31.3722190865  TIP3      3600            0.0000000000
     24601      3701  TIP3      OH2           -27.6139296766       23.4122200387      -35.7790988502  TIP3      3601            0.0000000000
     24602      3701  TIP3      H1            -28.5919640262       23.4476675228      -35.7293576770  TIP3      3601            0.0000000000
     24603      3701  TIP3      H2            -27.5090273251       23.8718133380      -36.6388414594  TIP3      3601            0.0000000000
     24604      3702  TIP3      OH2           -28.0646356206       25.7717630797      -23.8883643753  TIP3      3602            0.0000000000
     24605      3702  TIP3      H1            -28.2030107373       25.4874614690      -22.9769237791  TIP3      3602            0.0000000000
     24606      3702  TIP3      H2            -28.9618115951       25.5589090791      -24.2624461657  TIP3      3602            0.0000000000
     24607      3703  TIP3      OH2           -19.6295988883       24.6209340812      -40.9303437563  TIP3      3603            0.0000000000
     24608      3703  TIP3      H1            -19.5174693296       23.7690463928      -41.3807607646  TIP3      3603            0.0000000000
     24609      3703  TIP3      H2            -19.6252515430       25.2278530928      -41.7003645200  TIP3      3603            0.0000000000
     24610      3704  TIP3      OH2           -17.2183836576       23.9010471442      -24.3509724104  TIP3      3604            0.0000000000
     24611      3704  TIP3      H1            -17.3854672307       23.0418015147      -23.8987542390  TIP3      3604            0.0000000000
     24612      3704  TIP3      H2            -16.3683270761       24.1259636823      -23.9177121552  TIP3      3604            0.0000000000
     24613      3705  TIP3      OH2           -14.6116200746       23.9400961573      -41.1855216003  TIP3      3605            0.0000000000
     24614      3705  TIP3      H1            -14.8896015771       23.2886780408      -40.5035108989  TIP3      3605            0.0000000000
     24615      3705  TIP3      H2            -13.6500774521       23.7680988131      -41.1922466414  TIP3      3605            0.0000000000
     24616      3706  TIP3      OH2           -28.2981051298       19.8657967328      -23.3764759302  TIP3      3606            0.0000000000
     24617      3706  TIP3      H1            -28.2106033432       19.0900889108      -23.9667811967  TIP3      3606            0.0000000000
     24618      3706  TIP3      H2            -29.2504201611       19.8323060287      -23.1708472320  TIP3      3606            0.0000000000
     24619      3707  TIP3      OH2           -23.5421175345       20.1167034876      -41.4032963936  TIP3      3607            0.0000000000
     24620      3707  TIP3      H1            -23.3800726579       19.7819645576      -40.5112082387  TIP3      3607            0.0000000000
     24621      3707  TIP3      H2            -23.2444661610       19.3654187169      -41.9684872197  TIP3      3607            0.0000000000
     24622      3708  TIP3      OH2           -21.8545411984       20.2362270636      -24.3277211175  TIP3      3608            0.0000000000
     24623      3708  TIP3      H1            -22.2184041071       20.5900220691      -25.1669927846  TIP3      3608            0.0000000000
     24624      3708  TIP3      H2            -22.2659282752       19.3626225020      -24.2632723058  TIP3      3608            0.0000000000
     24625      3709  TIP3      OH2           -16.1412082475       19.7657098660      -26.4735601815  TIP3      3609            0.0000000000
     24626      3709  TIP3      H1            -15.2639599652       20.1885171909      -26.5618405205  TIP3      3609            0.0000000000
     24627      3709  TIP3      H2            -16.6537398206       20.5638816346      -26.2824556009  TIP3      3609            0.0000000000
     24628      3710  TIP3      OH2           -27.3852839221       17.5005613140      -24.3135301868  TIP3      3610            0.0000000000
     24629      3710  TIP3      H1            -27.1907280209       16.5696150797      -24.1683468717  TIP3      3610            0.0000000000
     24630      3710  TIP3      H2            -27.3380042642       17.7949023869      -23.3924682934  TIP3      3610            0.0000000000
     24631      3711  TIP3      OH2           -22.7530747260       18.1796601690      -38.7910472140  TIP3      3611            0.0000000000
     24632      3711  TIP3      H1            -23.4575232177       17.6489851736      -38.3865293598  TIP3      3611            0.0000000000
     24633      3711  TIP3      H2            -22.3227848949       17.5207267388      -39.3740224510  TIP3      3611            0.0000000000
     24634      3712  TIP3      OH2           -24.1995214673       16.1139028878      -26.8929204132  TIP3      3612            0.0000000000
     24635      3712  TIP3      H1            -24.1600900441       16.7891193010      -26.1821417867  TIP3      3612            0.0000000000
     24636      3712  TIP3      H2            -23.3324065540       16.2570789066      -27.3131596010  TIP3      3612            0.0000000000
     24637      3713  TIP3      OH2           -21.4055741170       16.6184621821      -40.8238582745  TIP3      3613            0.0000000000
     24638      3713  TIP3      H1            -21.3866982415       16.3025341348      -41.7363375615  TIP3      3613            0.0000000000
     24639      3713  TIP3      H2            -20.4521949080       16.8782445469      -40.7197328321  TIP3      3613            0.0000000000
     24640      3714  TIP3      OH2           -18.2455297285       18.8584815124      -23.3576694405  TIP3      3614            0.0000000000
     24641      3714  TIP3      H1            -17.8743518914       18.1978854960      -23.9599023512  TIP3      3614            0.0000000000
     24642      3714  TIP3      H2            -18.4904473551       18.3190978732      -22.5756181802  TIP3      3614            0.0000000000
     24643      3715  TIP3      OH2           -13.3040276630       18.9211446501      -41.6192480259  TIP3      3615            0.0000000000
     24644      3715  TIP3      H1            -13.4137654030       18.8201646605      -42.5817179648  TIP3      3615            0.0000000000
     24645      3715  TIP3      H2            -13.3463615872       19.8792789868      -41.5376124499  TIP3      3615            0.0000000000
     24646      3716  TIP3      OH2           -23.9337423438       13.2123441144      -26.0384290534  TIP3      3616            0.0000000000
     24647      3716  TIP3      H1            -23.0017106554       13.0034086684      -26.2813704558  TIP3      3616            0.0000000000
     24648      3716  TIP3      H2            -24.0816064310       14.0993554095      -26.4116542346  TIP3      3616            0.0000000000
     24649      3717  TIP3      OH2           -22.8901034363       11.2493780324      -28.7711999610  TIP3      3617            0.0000000000
     24650      3717  TIP3      H1            -22.1190204326       11.8207959429      -28.9263928635  TIP3      3617            0.0000000000
     24651      3717  TIP3      H2            -23.1540769954       11.6385735318      -27.9241742864  TIP3      3617            0.0000000000
     24652      3718  TIP3      OH2           -21.1874919654       17.1216493693      -28.3233192167  TIP3      3618            0.0000000000
     24653      3718  TIP3      H1            -20.6215478261       17.9084612588      -28.3162885528  TIP3      3618            0.0000000000
     24654      3718  TIP3      H2            -22.0251293156       17.5758399001      -28.4923497021  TIP3      3618            0.0000000000
     24655      3719  TIP3      OH2           -16.8737800103       14.9354980543      -23.0223695969  TIP3      3619            0.0000000000
     24656      3719  TIP3      H1            -16.6006787981       14.4064868610      -23.7794133484  TIP3      3619            0.0000000000
     24657      3719  TIP3      H2            -16.0344072031       15.3467979213      -22.7686814296  TIP3      3619            0.0000000000
     24658      3720  TIP3      OH2           -15.1657969560       18.0324151708      -24.5750275292  TIP3      3620            0.0000000000
     24659      3720  TIP3      H1            -15.5996978730       18.5394221317      -25.2913864812  TIP3      3620            0.0000000000
     24660      3720  TIP3      H2            -14.2181586144       18.1006001351      -24.8580515228  TIP3      3620            0.0000000000
     24661      3721  TIP3      OH2           -24.4206602231       14.8508935988      -23.5815410489  TIP3      3621            0.0000000000
     24662      3721  TIP3      H1            -25.2968172361       14.5905445988      -23.2538628601  TIP3      3621            0.0000000000
     24663      3721  TIP3      H2            -24.3926729553       14.4062739056      -24.4382866307  TIP3      3621            0.0000000000
     24664      3722  TIP3      OH2           -22.2051735621        9.1662667015      -27.1343051195  TIP3      3622            0.0000000000
     24665      3722  TIP3      H1            -22.2846354983        9.9843285277      -27.6717587961  TIP3      3622            0.0000000000
     24666      3722  TIP3      H2            -22.6997828267        8.5618260805      -27.7042321211  TIP3      3622            0.0000000000
     24667      3723  TIP3      OH2           -20.9287516385       13.7710579903      -23.7350876406  TIP3      3623            0.0000000000
     24668      3723  TIP3      H1            -21.6512488688       13.3905904249      -23.2071149036  TIP3      3623            0.0000000000
     24669      3723  TIP3      H2            -21.0466269263       13.3274237287      -24.6034114656  TIP3      3623            0.0000000000
     24670      3724  TIP3      OH2           -18.2027175061       12.4052106671      -25.0847120871  TIP3      3624            0.0000000000
     24671      3724  TIP3      H1            -19.0697182650       12.5067901948      -25.5229724467  TIP3      3624            0.0000000000
     24672      3724  TIP3      H2            -18.4700782740       12.1311180133      -24.1916640151  TIP3      3624            0.0000000000
     24673      3725  TIP3      OH2           -16.0759727222       11.2481696815      -22.9840450618  TIP3      3625            0.0000000000
     24674      3725  TIP3      H1            -16.0914065889       10.2856450497      -23.0788336447  TIP3      3625            0.0000000000
     24675      3725  TIP3      H2            -16.3120806971       11.3961766961      -22.0575488177  TIP3      3625            0.0000000000
     24676      3726  TIP3      OH2           -26.3585996192       12.1324737492      -23.3061954656  TIP3      3626            0.0000000000
     24677      3726  TIP3      H1            -26.0713096488       11.9448709497      -24.2178389334  TIP3      3626            0.0000000000
     24678      3726  TIP3      H2            -26.9173611285       11.3557347031      -23.1326973149  TIP3      3626            0.0000000000
     24679      3727  TIP3      OH2           -22.1248769609        8.3021039472      -24.3533603667  TIP3      3627            0.0000000000
     24680      3727  TIP3      H1            -21.4038370859        7.6935299353      -24.5975805567  TIP3      3627            0.0000000000
     24681      3727  TIP3      H2            -22.0834850720        8.8754109951      -25.1378088450  TIP3      3627            0.0000000000
     24682      3728  TIP3      OH2           -22.0914600611       26.7141429315      -40.0056211603  TIP3      3628            0.0000000000
     24683      3728  TIP3      H1            -21.3784033837       27.3428670916      -39.7920194018  TIP3      3628            0.0000000000
     24684      3728  TIP3      H2            -22.0906974121       26.7583322286      -40.9858484747  TIP3      3628            0.0000000000
     24685      3729  TIP3      OH2           -28.3473883680       21.7329536648      -40.4144291715  TIP3      3629            0.0000000000
     24686      3729  TIP3      H1            -27.4122621369       21.6238653582      -40.1309350128  TIP3      3629            0.0000000000
     24687      3729  TIP3      H2            -28.2482123836       21.6957222459      -41.3788411947  TIP3      3629            0.0000000000
     24688      3730  TIP3      OH2            29.5739855587       27.0694846329      -35.4380889506  TIP3      3630            0.0000000000
     24689      3730  TIP3      H1             28.6065792655       26.9858252840      -35.2813954908  TIP3      3630            0.0000000000
     24690      3730  TIP3      H2             29.9254467607       26.6021901352      -34.6504701679  TIP3      3630            0.0000000000
     24691      3731  TIP3      OH2           -28.3731261947       25.5053796030      -33.4795306295  TIP3      3631            0.0000000000
     24692      3731  TIP3      H1            -28.9480774591       24.7308246662      -33.3408996658  TIP3      3631            0.0000000000
     24693      3731  TIP3      H2            -27.8945518138       25.5676254894      -32.6361310884  TIP3      3631            0.0000000000
     24694      3732  TIP3      OH2           -11.0417546061       26.1447101155      -30.2049815553  TIP3      3632            0.0000000000
     24695      3732  TIP3      H1            -11.1619637217       25.6344648730      -29.3841434787  TIP3      3632            0.0000000000
     24696      3732  TIP3      H2            -10.6794658982       26.9773430742      -29.8258717874  TIP3      3632            0.0000000000
     24697      3733  TIP3      OH2           -11.6555751379       25.3230919149      -27.7285359659  TIP3      3633            0.0000000000
     24698      3733  TIP3      H1            -12.0546821674       24.5155621702      -28.1335524672  TIP3      3633            0.0000000000
     24699      3733  TIP3      H2            -11.2686755985       24.8880049767      -26.9396990932  TIP3      3633            0.0000000000
     24700      3734  TIP3      OH2           -12.8460945289       21.1008688981      -23.0352010252  TIP3      3634            0.0000000000
     24701      3734  TIP3      H1            -13.7699062687       20.9136023435      -22.8047191298  TIP3      3634            0.0000000000
     24702      3734  TIP3      H2            -12.5831808210       21.6497559433      -22.2909022391  TIP3      3634            0.0000000000
     24703      3735  TIP3      OH2           -12.1300437354       19.6474423056      -37.8267328342  TIP3      3635            0.0000000000
     24704      3735  TIP3      H1            -11.2584183616       20.0111614821      -37.5561098289  TIP3      3635            0.0000000000
     24705      3735  TIP3      H2            -12.2613922384       18.9643824720      -37.1363293358  TIP3      3635            0.0000000000
     24706      3736  TIP3      OH2           -11.5703373412       17.6665788830      -35.8338842407  TIP3      3636            0.0000000000
     24707      3736  TIP3      H1            -12.3005994387       17.2608568268      -35.3112600117  TIP3      3636            0.0000000000
     24708      3736  TIP3      H2            -11.0028558021       17.9713211351      -35.1062185996  TIP3      3636            0.0000000000
     24709      3737  TIP3      OH2           -11.8423845212       20.3821750032      -30.6395201805  TIP3      3637            0.0000000000
     24710      3737  TIP3      H1            -11.1742602670       19.7717450097      -31.0145418232  TIP3      3637            0.0000000000
     24711      3737  TIP3      H2            -11.4409424425       21.2487007023      -30.8372944598  TIP3      3637            0.0000000000
     24712      3738  TIP3      OH2           -12.9426231513       23.0747382047      -28.4798246339  TIP3      3638            0.0000000000
     24713      3738  TIP3      H1            -13.7084735237       23.5638896262      -28.1176088204  TIP3      3638            0.0000000000
     24714      3738  TIP3      H2            -13.3547283282       22.6488832914      -29.2691187546  TIP3      3638            0.0000000000
     24715      3739  TIP3      OH2           -11.1639951358       17.4884508291      -39.2407781549  TIP3      3639            0.0000000000
     24716      3739  TIP3      H1            -12.0720707369       17.4152254596      -39.5785389706  TIP3      3639            0.0000000000
     24717      3739  TIP3      H2            -11.2094083947       18.3399085080      -38.7644323206  TIP3      3639            0.0000000000
     24718      3740  TIP3      OH2           -12.6522983958       14.5332980470      -40.7857014316  TIP3      3640            0.0000000000
     24719      3740  TIP3      H1            -12.7257813556       15.0901968045      -41.5689074102  TIP3      3640            0.0000000000
     24720      3740  TIP3      H2            -12.8913489866       13.6732137023      -41.1786196789  TIP3      3640            0.0000000000
     24721      3741  TIP3      OH2           -13.5088004216       16.2674176804      -34.6766061508  TIP3      3641            0.0000000000
     24722      3741  TIP3      H1            -14.0596708812       15.5695742419      -35.0608167952  TIP3      3641            0.0000000000
     24723      3741  TIP3      H2            -13.7681464838       16.1704034453      -33.7307926051  TIP3      3641            0.0000000000
     24724      3742  TIP3      OH2           -28.7373840261       17.8362485346      -30.3575366869  TIP3      3642            0.0000000000
     24725      3742  TIP3      H1            -28.6448515591       17.8571429377      -31.3378093626  TIP3      3642            0.0000000000
     24726      3742  TIP3      H2            -27.8005238791       17.7578594707      -30.0790961996  TIP3      3642            0.0000000000
     24727      3743  TIP3      OH2           -12.5532832905       18.0999294156      -25.1359167921  TIP3      3643            0.0000000000
     24728      3743  TIP3      H1            -12.0390420137       17.3090051104      -24.8731715816  TIP3      3643            0.0000000000
     24729      3743  TIP3      H2            -11.8724662496       18.7829851145      -25.2832479842  TIP3      3643            0.0000000000
     24730      3744  TIP3      OH2           -11.4545933803       15.5543098736      -24.8082580739  TIP3      3644            0.0000000000
     24731      3744  TIP3      H1            -12.3831566371       15.2230565914      -24.7514643760  TIP3      3644            0.0000000000
     24732      3744  TIP3      H2            -10.9799788862       14.7069768514      -24.8914751092  TIP3      3644            0.0000000000
     24733      3745  TIP3      OH2           -13.6471032982       12.1823925558      -41.6432723280  TIP3      3645            0.0000000000
     24734      3745  TIP3      H1            -13.2395805425       11.7321319151      -40.8822763726  TIP3      3645            0.0000000000
     24735      3745  TIP3      H2            -14.5702198892       12.2628824449      -41.3609046333  TIP3      3645            0.0000000000
     24736      3746  TIP3      OH2           -14.6579161635       13.8752570543      -36.2730676825  TIP3      3646            0.0000000000
     24737      3746  TIP3      H1            -14.5090516761       12.9535825552      -35.9778967305  TIP3      3646            0.0000000000
     24738      3746  TIP3      H2            -13.7705271437       14.0258348577      -36.6377188246  TIP3      3646            0.0000000000
     24739      3747  TIP3      OH2           -13.0438743722       14.5055932954      -30.9559795446  TIP3      3647            0.0000000000
     24740      3747  TIP3      H1            -12.0684684721       14.6506846071      -30.9018361693  TIP3      3647            0.0000000000
     24741      3747  TIP3      H2            -13.2240036857       14.5041183704      -29.9979881565  TIP3      3647            0.0000000000
     24742      3748  TIP3      OH2           -13.1957567984       15.0747813998      -28.2048165805  TIP3      3648            0.0000000000
     24743      3748  TIP3      H1            -14.0177618033       15.3877591911      -27.7694797775  TIP3      3648            0.0000000000
     24744      3748  TIP3      H2            -12.6717018173       15.9032070237      -28.2436015470  TIP3      3648            0.0000000000
     24745      3749  TIP3      OH2           -29.1973064014       13.6665999478      -24.6617517932  TIP3      3649            0.0000000000
     24746      3749  TIP3      H1            -28.2776935370       13.7915579807      -24.9271384021  TIP3      3649            0.0000000000
     24747      3749  TIP3      H2            -29.1132754680       13.6010132813      -23.6963567868  TIP3      3649            0.0000000000
     24748      3750  TIP3      OH2           -13.8240372134       10.9759152323      -35.9218842254  TIP3      3650            0.0000000000
     24749      3750  TIP3      H1            -13.2779542602       10.6848481097      -35.1621694544  TIP3      3650            0.0000000000
     24750      3750  TIP3      H2            -14.0069964628       10.1422647486      -36.3852032071  TIP3      3650            0.0000000000
     24751      3751  TIP3      OH2           -27.9534871845       11.7580899412      -31.8045653720  TIP3      3651            0.0000000000
     24752      3751  TIP3      H1            -27.4121608175       10.9418175303      -31.6368784841  TIP3      3651            0.0000000000
     24753      3751  TIP3      H2            -27.2828361440       12.4231832433      -31.5869844602  TIP3      3651            0.0000000000
     24754      3752  TIP3      OH2           -29.2121780392       14.9482965277      -30.2535281912  TIP3      3652            0.0000000000
     24755      3752  TIP3      H1            -28.6123429582       14.6386792467      -30.9508503420  TIP3      3652            0.0000000000
     24756      3752  TIP3      H2            -28.7118685669       15.6974337019      -29.8974886620  TIP3      3652            0.0000000000
     24757      3753  TIP3      OH2           -12.2237788105       10.5161603760      -24.3129440878  TIP3      3653            0.0000000000
     24758      3753  TIP3      H1            -12.8932610017       10.9386704352      -24.9016806543  TIP3      3653            0.0000000000
     24759      3753  TIP3      H2            -11.7504938175        9.9937267427      -24.9917117980  TIP3      3653            0.0000000000
     24760      3754  TIP3      OH2           -11.6928308196       11.2043879868      -40.0386676019  TIP3      3654            0.0000000000
     24761      3754  TIP3      H1            -11.5697363656       11.3282668016      -41.0035542632  TIP3      3654            0.0000000000
     24762      3754  TIP3      H2            -11.1682229532       11.9685844996      -39.7183153589  TIP3      3654            0.0000000000
     24763      3755  TIP3      OH2           -29.0262970471       10.6253597360      -36.9166432968  TIP3      3655            0.0000000000
     24764      3755  TIP3      H1            -29.9586720143       10.5431614780      -36.6186743763  TIP3      3655            0.0000000000
     24765      3755  TIP3      H2            -29.0022328408       11.4913365932      -37.3544554484  TIP3      3655            0.0000000000
     24766      3756  TIP3      OH2           -14.6643634547       25.8294908658      -35.2049662769  TIP3      3656            0.0000000000
     24767      3756  TIP3      H1            -13.8369383659       25.7759374179      -35.7143668039  TIP3      3656            0.0000000000
     24768      3756  TIP3      H2            -14.5922399908       26.6846283166      -34.7510515276  TIP3      3656            0.0000000000
     24769      3757  TIP3      OH2            29.7656901427        9.4208196464      -28.4593853434  TIP3      3657            0.0000000000
     24770      3757  TIP3      H1             28.8204545098        9.5862047736      -28.2514400059  TIP3      3657            0.0000000000
     24771      3757  TIP3      H2             29.9015311374        9.9104964981      -29.2788909727  TIP3      3657            0.0000000000
     24772      3758  TIP3      OH2           -23.9156648512       24.4407436861      -28.0217540081  TIP3      3658            0.0000000000
     24773      3758  TIP3      H1            -24.1168755173       25.3877224660      -28.2147030121  TIP3      3658            0.0000000000
     24774      3758  TIP3      H2            -22.9670285031       24.3768452620      -28.2801719646  TIP3      3658            0.0000000000
     24775      3759  TIP3      OH2           -20.1365256656       25.4320489905      -25.3156278308  TIP3      3659            0.0000000000
     24776      3759  TIP3      H1            -19.6315357547       25.1926071029      -24.5297937599  TIP3      3659            0.0000000000
     24777      3759  TIP3      H2            -19.4285487920       25.8644802200      -25.8330560076  TIP3      3659            0.0000000000
     24778      3760  TIP3      OH2           -17.7179436734       26.9434390817      -25.7248657973  TIP3      3660            0.0000000000
     24779      3760  TIP3      H1            -17.1706411160       26.1600775839      -25.8838625916  TIP3      3660            0.0000000000
     24780      3760  TIP3      H2            -17.3344270400       27.2885880348      -24.8936431873  TIP3      3660            0.0000000000
     24781      3761  TIP3      OH2           -12.5938596234        9.0774202279      -26.6818216659  TIP3      3661            0.0000000000
     24782      3761  TIP3      H1            -13.4804213695        9.3358716641      -26.9825716856  TIP3      3661            0.0000000000
     24783      3761  TIP3      H2            -12.5260984332        8.1345230878      -26.9397445087  TIP3      3661            0.0000000000
     24784      3762  TIP3      OH2           -27.0001976786       26.6029487383      -27.6767884565  TIP3      3662            0.0000000000
     24785      3762  TIP3      H1            -27.8397668524       27.0386469973      -27.9821622725  TIP3      3662            0.0000000000
     24786      3762  TIP3      H2            -26.8889737662       27.1131843173      -26.8428478261  TIP3      3662            0.0000000000
     24787      3763  TIP3      OH2           -24.6735626407       26.8189729628      -29.0634295201  TIP3      3663            0.0000000000
     24788      3763  TIP3      H1            -25.5928784930       26.8524243634      -28.7028162610  TIP3      3663            0.0000000000
     24789      3763  TIP3      H2            -24.7592595879       27.3362044321      -29.8826937241  TIP3      3663            0.0000000000
     24790      3764  TIP3      OH2           -19.3915653480       26.4706180022      -29.8275770218  TIP3      3664            0.0000000000
     24791      3764  TIP3      H1            -19.9891204939       26.9684007061      -30.4026901739  TIP3      3664            0.0000000000
     24792      3764  TIP3      H2            -19.2306424872       27.1371276398      -29.1273622277  TIP3      3664            0.0000000000
     24793      3765  TIP3      OH2           -17.6087730112       25.0948455546      -28.4412099186  TIP3      3665            0.0000000000
     24794      3765  TIP3      H1            -18.2187626567       25.5356426479      -29.0705702846  TIP3      3665            0.0000000000
     24795      3765  TIP3      H2            -16.8114745739       25.6106650308      -28.6805501629  TIP3      3665            0.0000000000
     24796      3766  TIP3      OH2           -15.4826540292       26.7488877612      -28.8312738663  TIP3      3666            0.0000000000
     24797      3766  TIP3      H1            -15.1898338385       27.6669212217      -28.7527531037  TIP3      3666            0.0000000000
     24798      3766  TIP3      H2            -14.9360663956       26.5090061555      -29.6271768844  TIP3      3666            0.0000000000
     24799      3767  TIP3      OH2           -27.0236237851       25.8080389769      -31.0570577255  TIP3      3667            0.0000000000
     24800      3767  TIP3      H1            -27.0824944766       25.0889107841      -30.3830631319  TIP3      3667            0.0000000000
     24801      3767  TIP3      H2            -26.1910090023       25.5354117305      -31.5214199387  TIP3      3667            0.0000000000
     24802      3768  TIP3      OH2           -25.0918060419       24.6570273670      -32.5582431767  TIP3      3668            0.0000000000
     24803      3768  TIP3      H1            -25.3465536169       23.7646086605      -32.2598375259  TIP3      3668            0.0000000000
     24804      3768  TIP3      H2            -24.1897053223       24.7310401122      -32.1642690798  TIP3      3668            0.0000000000
     24805      3769  TIP3      OH2           -22.6837779064       24.6474443428      -31.3593782198  TIP3      3669            0.0000000000
     24806      3769  TIP3      H1            -22.3876195265       23.7171723152      -31.4825049419  TIP3      3669            0.0000000000
     24807      3769  TIP3      H2            -22.4924392429       24.7415279154      -30.4156934736  TIP3      3669            0.0000000000
     24808      3770  TIP3      OH2           -19.8061917261       10.4348279388      -32.2651007844  TIP3      3670            0.0000000000
     24809      3770  TIP3      H1            -20.4849229205        9.7382818759      -32.1277199707  TIP3      3670            0.0000000000
     24810      3770  TIP3      H2            -19.0328285118        9.9394701162      -32.5549210620  TIP3      3670            0.0000000000
     24811      3771  TIP3      OH2           -13.8080011857        8.7467183015      -32.3892198717  TIP3      3671            0.0000000000
     24812      3771  TIP3      H1            -13.2298622071        9.2935665428      -32.9762319962  TIP3      3671            0.0000000000
     24813      3771  TIP3      H2            -14.7169144306        9.0153308290      -32.6535746392  TIP3      3671            0.0000000000
     24814      3772  TIP3      OH2           -12.0251773295        9.5270570418      -34.2609134455  TIP3      3672            0.0000000000
     24815      3772  TIP3      H1            -11.3896292755        8.9862265121      -34.7805375882  TIP3      3672            0.0000000000
     24816      3772  TIP3      H2            -11.4702486630       10.3112058843      -34.0217296561  TIP3      3672            0.0000000000
     24817      3773  TIP3      OH2           -26.4435390387        8.9375450618      -34.6001805902  TIP3      3673            0.0000000000
     24818      3773  TIP3      H1            -27.2940340946        8.7660030560      -35.0366139525  TIP3      3673            0.0000000000
     24819      3773  TIP3      H2            -26.0506701652        8.0340602816      -34.5984368863  TIP3      3673            0.0000000000
     24820      3774  TIP3      OH2           -27.7617106387        8.7945897823      -38.8629947191  TIP3      3674            0.0000000000
     24821      3774  TIP3      H1            -27.5479735784        9.5788989620      -39.4200361556  TIP3      3674            0.0000000000
     24822      3774  TIP3      H2            -27.9313460057        9.2079994617      -37.9998539969  TIP3      3674            0.0000000000
     24823      3775  TIP3      OH2           -22.1745699490        8.9868755133      -34.6418990639  TIP3      3675            0.0000000000
     24824      3775  TIP3      H1            -21.2602910247        8.8189406841      -34.9129949200  TIP3      3675            0.0000000000
     24825      3775  TIP3      H2            -22.0643800741        9.2498512765      -33.7131714246  TIP3      3675            0.0000000000
     24826      3776  TIP3      OH2           -16.3072714763        9.0540430805      -33.4241677286  TIP3      3676            0.0000000000
     24827      3776  TIP3      H1            -16.8260930826        9.5327474366      -34.0730447157  TIP3      3676            0.0000000000
     24828      3776  TIP3      H2            -16.9131694998        8.3036776327      -33.1935226810  TIP3      3676            0.0000000000
     24829      3777  TIP3      OH2           -14.9564023777        8.8991372038      -37.7001938384  TIP3      3677            0.0000000000
     24830      3777  TIP3      H1            -15.6849960120        9.4713261563      -37.9673838062  TIP3      3677            0.0000000000
     24831      3777  TIP3      H2            -15.4440342191        8.2466796375      -37.1489065657  TIP3      3677            0.0000000000
     24832      3778  TIP3      OH2           -28.0656801645       24.7612925904      -38.0852984721  TIP3      3678            0.0000000000
     24833      3778  TIP3      H1            -28.9867483591       25.0180329507      -38.3035360120  TIP3      3678            0.0000000000
     24834      3778  TIP3      H2            -27.5435773693       25.4207355606      -38.5623458691  TIP3      3678            0.0000000000
     24835      3779  TIP3      OH2           -26.8744904917       10.9369491456      -40.1836159701  TIP3      3679            0.0000000000
     24836      3779  TIP3      H1            -26.3197544781       10.6625566832      -40.9220789313  TIP3      3679            0.0000000000
     24837      3779  TIP3      H2            -26.2313458919       11.4264300165      -39.6543058292  TIP3      3679            0.0000000000
     24838      3780  TIP3      OH2           -21.2976667486       11.3250609877      -38.0102538059  TIP3      3680            0.0000000000
     24839      3780  TIP3      H1            -20.9883652039       10.6973575373      -37.3325780221  TIP3      3680            0.0000000000
     24840      3780  TIP3      H2            -21.0062513842       12.1644544316      -37.5958275952  TIP3      3680            0.0000000000
     24841      3781  TIP3      OH2           -19.0679304464       26.8766560101      -39.3802407154  TIP3      3681            0.0000000000
     24842      3781  TIP3      H1            -18.1086909775       26.7821557967      -39.5312504792  TIP3      3681            0.0000000000
     24843      3781  TIP3      H2            -19.3823206515       26.1145494667      -39.9013145738  TIP3      3681            0.0000000000
     24844      3782  TIP3      OH2           -12.3423890527       25.6353909529      -36.6062899803  TIP3      3682            0.0000000000
     24845      3782  TIP3      H1            -12.6507980855       24.8111902377      -37.0591336405  TIP3      3682            0.0000000000
     24846      3782  TIP3      H2            -12.6383678693       26.3214956696      -37.2457531506  TIP3      3682            0.0000000000
     24847      3783  TIP3      OH2           -27.1290231926        9.9064510735      -25.0146888688  TIP3      3683            0.0000000000
     24848      3783  TIP3      H1            -27.5675104437        9.0378874448      -25.0313516776  TIP3      3683            0.0000000000
     24849      3783  TIP3      H2            -26.3310821020        9.6914032602      -24.4880379095  TIP3      3683            0.0000000000
     24850      3784  TIP3      OH2           -25.0291926293        9.4980742520      -23.3636672682  TIP3      3684            0.0000000000
     24851      3784  TIP3      H1            -24.1212991373        9.3399505712      -23.6845691430  TIP3      3684            0.0000000000
     24852      3784  TIP3      H2            -25.3139375971        8.6017596437      -23.0734891027  TIP3      3684            0.0000000000
     24853      3785  TIP3      OH2           -26.9699494944       26.1167739779      -40.8619173807  TIP3      3685            0.0000000000
     24854      3785  TIP3      H1            -27.0509221398       26.9420999825      -40.3397480614  TIP3      3685            0.0000000000
     24855      3785  TIP3      H2            -26.1436691530       25.7396681799      -40.5562734731  TIP3      3685            0.0000000000
     24856      3786  TIP3      OH2           -13.1458769409       24.6649484055      -24.7842877688  TIP3      3686            0.0000000000
     24857      3786  TIP3      H1            -13.6740203633       24.5141017389      -25.5990161906  TIP3      3686            0.0000000000
     24858      3786  TIP3      H2            -13.4048003666       25.5862456004      -24.6099354376  TIP3      3686            0.0000000000
     24859      3787  TIP3      OH2             1.3856780354       18.4911602540      -34.7558046952  TIP3      3687            0.0000000000
     24860      3787  TIP3      H1              1.0541630648       19.4074177632      -34.7420265245  TIP3      3687            0.0000000000
     24861      3787  TIP3      H2              0.7338510660       18.0647853258      -35.3324631002  TIP3      3687            0.0000000000
     24862      3788  TIP3      OH2             0.1611220170       17.3108960868      -31.5721076634  TIP3      3688            0.0000000000
     24863      3788  TIP3      H1              0.2497682702       17.0217097084      -30.6360610742  TIP3      3688            0.0000000000
     24864      3788  TIP3      H2             -0.6757649533       16.9167373578      -31.8658403372  TIP3      3688            0.0000000000
     24865      3789  TIP3      OH2            -7.8694293675       17.1630686420      -29.8085313010  TIP3      3689            0.0000000000
     24866      3789  TIP3      H1             -7.9434012566       16.4627984789      -29.1380038803  TIP3      3689            0.0000000000
     24867      3789  TIP3      H2             -6.9335304509       17.4154587815      -29.7383782726  TIP3      3689            0.0000000000
     24868      3790  TIP3      OH2             3.6802883942       20.3768846721      -32.6939775833  TIP3      3690            0.0000000000
     24869      3790  TIP3      H1              3.5310170324       19.6587938575      -32.0460253489  TIP3      3690            0.0000000000
     24870      3790  TIP3      H2              3.3584332255       21.1403933817      -32.2045096171  TIP3      3690            0.0000000000
     24871      3791  TIP3      OH2            -6.5187372177       21.8414834604      -31.2436786855  TIP3      3691            0.0000000000
     24872      3791  TIP3      H1             -6.9165499667       21.0096394735      -31.5685364266  TIP3      3691            0.0000000000
     24873      3791  TIP3      H2             -5.5784996323       21.6422450703      -31.3806501904  TIP3      3691            0.0000000000
     24874      3792  TIP3      OH2           -10.0748168639       15.0150726896      -35.6944764826  TIP3      3692            0.0000000000
     24875      3792  TIP3      H1            -10.2603960447       15.9585275830      -35.5576196110  TIP3      3692            0.0000000000
     24876      3792  TIP3      H2            -10.9661010074       14.6853629251      -35.9090839770  TIP3      3692            0.0000000000
     24877      3793  TIP3      OH2            -9.8893070409       17.3971953147      -33.3658780582  TIP3      3693            0.0000000000
     24878      3793  TIP3      H1             -9.5997011489       16.4636702292      -33.2438616634  TIP3      3693            0.0000000000
     24879      3793  TIP3      H2             -9.0406237527       17.8539597037      -33.4711003543  TIP3      3693            0.0000000000
     24880      3794  TIP3      OH2             0.9393543480       26.2133887875      -32.8040254304  TIP3      3694            0.0000000000
     24881      3794  TIP3      H1              1.3015145799       25.3229008164      -33.0332353997  TIP3      3694            0.0000000000
     24882      3794  TIP3      H2              0.5099447863       26.0659549794      -31.9503314083  TIP3      3694            0.0000000000
     24883      3795  TIP3      OH2            -1.7445481541       19.7394484432      -30.3747830529  TIP3      3695            0.0000000000
     24884      3795  TIP3      H1             -1.4495304771       19.3803471160      -31.2242511851  TIP3      3695            0.0000000000
     24885      3795  TIP3      H2             -0.9497466081       20.2488030343      -30.1290296200  TIP3      3695            0.0000000000
     24886      3796  TIP3      OH2             7.0616090247       11.4707915362      -30.8668507010  TIP3      3696            0.0000000000
     24887      3796  TIP3      H1              7.1994592537       11.9604309533      -30.0414103380  TIP3      3696            0.0000000000
     24888      3796  TIP3      H2              8.0018068380       11.4840815588      -31.1514722970  TIP3      3696            0.0000000000
     24889      3797  TIP3      OH2             2.0609478191       14.5521733775      -30.2076575529  TIP3      3697            0.0000000000
     24890      3797  TIP3      H1              2.0519668506       13.5865515040      -30.0310036583  TIP3      3697            0.0000000000
     24891      3797  TIP3      H2              2.0491132097       14.5081144295      -31.1856215239  TIP3      3697            0.0000000000
     24892      3798  TIP3      OH2            -5.2459389043       12.3039360584      -33.5469139159  TIP3      3698            0.0000000000
     24893      3798  TIP3      H1             -5.1539076797       13.2011704653      -33.9249246760  TIP3      3698            0.0000000000
     24894      3798  TIP3      H2             -5.6964242433       11.8627672213      -34.2881797885  TIP3      3698            0.0000000000
     24895      3799  TIP3      OH2             2.0177939502       12.5960069525      -34.7516867858  TIP3      3699            0.0000000000
     24896      3799  TIP3      H1              2.6331176716       12.4047228279      -34.0091392169  TIP3      3699            0.0000000000
     24897      3799  TIP3      H2              2.5071075925       13.3037763096      -35.2065078433  TIP3      3699            0.0000000000
     24898      3800  TIP3      OH2            -8.7719850935       15.0891758030      -32.6449486154  TIP3      3700            0.0000000000
     24899      3800  TIP3      H1             -8.1228801597       14.7759929809      -31.9964695058  TIP3      3700            0.0000000000
     24900      3800  TIP3      H2             -8.4150964542       14.6906755048      -33.4645187452  TIP3      3700            0.0000000000
     24901      3801  TIP3      OH2            -4.0758360973       16.6718463347      -33.0611319800  TIP3      3701            0.0000000000
     24902      3801  TIP3      H1             -3.2323105972       16.2462365788      -32.8182805489  TIP3      3701            0.0000000000
     24903      3801  TIP3      H2             -4.4916014073       15.9136248246      -33.5420620920  TIP3      3701            0.0000000000
     24904      3802  TIP3      OH2             7.1990896325       12.8227984712      -28.1416800905  TIP3      3702            0.0000000000
     24905      3802  TIP3      H1              6.7494862680       13.6410450419      -28.4625838889  TIP3      3702            0.0000000000
     24906      3802  TIP3      H2              7.1812174538       12.9960348145      -27.1865254044  TIP3      3702            0.0000000000
     24907      3803  TIP3      OH2            -6.2532522888       11.4013804271      -29.3794154481  TIP3      3703            0.0000000000
     24908      3803  TIP3      H1             -6.5504456103       12.0452026407      -30.0580951157  TIP3      3703            0.0000000000
     24909      3803  TIP3      H2             -6.8551341787       11.6170710399      -28.6413938426  TIP3      3703            0.0000000000
     24910      3804  TIP3      OH2             0.6560762259       21.2440994625      -35.6433876171  TIP3      3704            0.0000000000
     24911      3804  TIP3      H1              0.4764133992       21.0762577900      -36.5950120066  TIP3      3704            0.0000000000
     24912      3804  TIP3      H2              0.4942009358       22.2014072557      -35.6322573915  TIP3      3704            0.0000000000
     24913      3805  TIP3      OH2            -4.1450232581       19.1901151833      -29.3545489364  TIP3      3705            0.0000000000
     24914      3805  TIP3      H1             -4.6994154526       19.9386209313      -29.0308508288  TIP3      3705            0.0000000000
     24915      3805  TIP3      H2             -3.3389473163       19.6484537146      -29.6787563461  TIP3      3705            0.0000000000
     24916      3806  TIP3      OH2             4.1485957773       12.7759055010      -32.6898024131  TIP3      3706            0.0000000000
     24917      3806  TIP3      H1              4.3793274939       11.8703616547      -32.4777186369  TIP3      3706            0.0000000000
     24918      3806  TIP3      H2              4.7729387925       13.2928363859      -32.1302066595  TIP3      3706            0.0000000000
     24919      3807  TIP3      OH2            -6.6675079285       13.4294004331      -31.2252654963  TIP3      3707            0.0000000000
     24920      3807  TIP3      H1             -6.0353978214       14.1064458448      -30.9029128155  TIP3      3707            0.0000000000
     24921      3807  TIP3      H2             -6.1883969939       13.0541598028      -32.0024783900  TIP3      3707            0.0000000000
     24922      3808  TIP3      OH2            -5.2433222769       21.4257483033      -28.4150979782  TIP3      3708            0.0000000000
     24923      3808  TIP3      H1             -5.3889843323       22.3170514160      -28.7603724598  TIP3      3708            0.0000000000
     24924      3808  TIP3      H2             -6.1364792531       21.2505271386      -28.0194980943  TIP3      3708            0.0000000000
     24925      3809  TIP3      OH2            -9.6077914057       20.7439806878      -37.4062950667  TIP3      3709            0.0000000000
     24926      3809  TIP3      H1             -9.5991903936       21.1503535936      -38.3004708365  TIP3      3709            0.0000000000
     24927      3809  TIP3      H2             -9.5745973770       21.5119431045      -36.8127610516  TIP3      3709            0.0000000000
     24928      3810  TIP3      OH2             4.2793264944       23.3182609699      -30.8633785591  TIP3      3710            0.0000000000
     24929      3810  TIP3      H1              3.3826826925       23.1183810045      -30.5028977110  TIP3      3710            0.0000000000
     24930      3810  TIP3      H2              4.3161799549       24.2890420289      -30.6970163954  TIP3      3710            0.0000000000
     24931      3811  TIP3      OH2             4.2884807551       11.1850634544      -29.5009484715  TIP3      3711            0.0000000000
     24932      3811  TIP3      H1              3.5404087370       11.5994807041      -29.9659953645  TIP3      3711            0.0000000000
     24933      3811  TIP3      H2              4.9912174304       11.1757103199      -30.1745724300  TIP3      3711            0.0000000000
     24934      3812  TIP3      OH2            -2.7309678878        9.0067812222      -31.9042784975  TIP3      3712            0.0000000000
     24935      3812  TIP3      H1             -2.8886952687        8.0537093044      -31.8230615198  TIP3      3712            0.0000000000
     24936      3812  TIP3      H2             -3.6133301198        9.3536767265      -31.6030348377  TIP3      3712            0.0000000000
     24937      3813  TIP3      OH2             2.4338597294       24.1629489843      -33.7218995868  TIP3      3713            0.0000000000
     24938      3813  TIP3      H1              2.0112370351       23.5899904263      -34.3853124757  TIP3      3713            0.0000000000
     24939      3813  TIP3      H2              2.8191714055       24.8607988602      -34.2958793271  TIP3      3713            0.0000000000
     24940      3814  TIP3      OH2             3.8866534778       22.0603752226      -35.3393027755  TIP3      3714            0.0000000000
     24941      3814  TIP3      H1              3.7548742274       21.6456919088      -36.2115491740  TIP3      3714            0.0000000000
     24942      3814  TIP3      H2              3.6725423879       21.3009842107      -34.7700269813  TIP3      3714            0.0000000000
     24943      3815  TIP3      OH2             5.2430289161       21.0110991937      -26.9824871245  TIP3      3715            0.0000000000
     24944      3815  TIP3      H1              5.5002525363       20.2131987079      -27.4934192292  TIP3      3715            0.0000000000
     24945      3815  TIP3      H2              5.4961020617       21.7172625272      -27.6179943279  TIP3      3715            0.0000000000
     24946      3816  TIP3      OH2            -0.4539718022       17.5126616882      -37.5154953469  TIP3      3716            0.0000000000
     24947      3816  TIP3      H1             -0.9156066082       18.3742558358      -37.5917564310  TIP3      3716            0.0000000000
     24948      3816  TIP3      H2              0.2417901422       17.5965164610      -38.1931048942  TIP3      3716            0.0000000000
     24949      3817  TIP3      OH2            -0.0065005401       16.6583614250      -40.2127790590  TIP3      3717            0.0000000000
     24950      3817  TIP3      H1              0.8899914917       16.7033283918      -39.8418282987  TIP3      3717            0.0000000000
     24951      3817  TIP3      H2             -0.0740789946       15.7257664723      -40.4404057389  TIP3      3717            0.0000000000
     24952      3818  TIP3      OH2             7.3682829104       17.1589300236      -29.1682264623  TIP3      3718            0.0000000000
     24953      3818  TIP3      H1              6.6412405402       17.7948663592      -29.0521318963  TIP3      3718            0.0000000000
     24954      3818  TIP3      H2              7.9187185915       17.6415241310      -29.8256305941  TIP3      3718            0.0000000000
     24955      3819  TIP3      OH2             3.8089100284       17.7378681990      -36.0201515528  TIP3      3719            0.0000000000
     24956      3819  TIP3      H1              3.0245053422       18.0251831990      -35.4942015932  TIP3      3719            0.0000000000
     24957      3819  TIP3      H2              4.3257937046       17.3058376036      -35.3146870578  TIP3      3719            0.0000000000
     24958      3820  TIP3      OH2             3.3175318539       16.2128897303      -26.8547173932  TIP3      3720            0.0000000000
     24959      3820  TIP3      H1              3.5260679571       17.0701381355      -26.4462829874  TIP3      3720            0.0000000000
     24960      3820  TIP3      H2              2.6062664145       16.4530029308      -27.4759793208  TIP3      3720            0.0000000000
     24961      3821  TIP3      OH2            -5.3057038953       18.4385517670      -34.5850093538  TIP3      3721            0.0000000000
     24962      3821  TIP3      H1             -5.4860064942       17.9200423463      -35.4007643369  TIP3      3721            0.0000000000
     24963      3821  TIP3      H2             -4.7915124950       17.7911684992      -34.0487678849  TIP3      3721            0.0000000000
     24964      3822  TIP3      OH2            -3.5609274565       21.8027133145      -31.5092901008  TIP3      3722            0.0000000000
     24965      3822  TIP3      H1             -3.4876481205       21.6579139781      -32.4643633184  TIP3      3722            0.0000000000
     24966      3822  TIP3      H2             -2.9316002506       21.1687969864      -31.1276535580  TIP3      3722            0.0000000000
     24967      3823  TIP3      OH2            -4.9831913927       17.0844279070      -30.5870384387  TIP3      3723            0.0000000000
     24968      3823  TIP3      H1             -4.6543871476       17.1270258566      -31.5163774060  TIP3      3723            0.0000000000
     24969      3823  TIP3      H2             -4.4972090949       17.8310905784      -30.1645857205  TIP3      3723            0.0000000000
     24970      3824  TIP3      OH2             1.9085401627       22.9355213581      -29.7279680416  TIP3      3724            0.0000000000
     24971      3824  TIP3      H1              1.5512313906       23.4959860796      -29.0181520683  TIP3      3724            0.0000000000
     24972      3824  TIP3      H2              1.6801629727       22.0338049009      -29.4148769087  TIP3      3724            0.0000000000
     24973      3825  TIP3      OH2            -3.7454386358       21.5087991872      -26.1084504999  TIP3      3725            0.0000000000
     24974      3825  TIP3      H1             -4.3880003911       22.0816477654      -25.6408673547  TIP3      3725            0.0000000000
     24975      3825  TIP3      H2             -4.2053358334       21.4150067539      -26.9679084233  TIP3      3725            0.0000000000
     24976      3826  TIP3      OH2             2.2549536527       17.4188495177      -38.2361542801  TIP3      3726            0.0000000000
     24977      3826  TIP3      H1              2.9152593103       17.5970438468      -37.5290434275  TIP3      3726            0.0000000000
     24978      3826  TIP3      H2              2.6162677747       17.9271221354      -39.0013793780  TIP3      3726            0.0000000000
     24979      3827  TIP3      OH2            -6.7700907394       17.7548185282      -26.6895319583  TIP3      3727            0.0000000000
     24980      3827  TIP3      H1             -6.7658722510       18.3349070296      -25.9083912045  TIP3      3727            0.0000000000
     24981      3827  TIP3      H2             -7.7226675773       17.5480103811      -26.6982279900  TIP3      3727            0.0000000000
     24982      3828  TIP3      OH2             0.0325099308       24.1610183231      -35.3053600316  TIP3      3728            0.0000000000
     24983      3828  TIP3      H1             -0.7829335968       24.2492353324      -34.7930504987  TIP3      3728            0.0000000000
     24984      3828  TIP3      H2             -0.2670349295       24.5032134137      -36.1688489420  TIP3      3728            0.0000000000
     24985      3829  TIP3      OH2            -5.4587263617       23.4108691649      -25.1690131071  TIP3      3729            0.0000000000
     24986      3829  TIP3      H1             -5.6218483095       23.7577994025      -26.0726801907  TIP3      3729            0.0000000000
     24987      3829  TIP3      H2             -6.3344399279       23.0648745169      -24.9019138812  TIP3      3729            0.0000000000
     24988      3830  TIP3      OH2             6.2387158737        8.7631651156      -38.4820988265  TIP3      3730            0.0000000000
     24989      3830  TIP3      H1              5.2661258123        8.8766496217      -38.4219197400  TIP3      3730            0.0000000000
     24990      3830  TIP3      H2              6.4820123960        9.5901926688      -38.9410694181  TIP3      3730            0.0000000000
     24991      3831  TIP3      OH2            -6.3148763351       17.2211780403      -36.8127994629  TIP3      3731            0.0000000000
     24992      3831  TIP3      H1             -6.7529174179       17.9937797286      -37.2438583245  TIP3      3731            0.0000000000
     24993      3831  TIP3      H2             -6.7843766242       16.4687371457      -37.1677359495  TIP3      3731            0.0000000000
     24994      3832  TIP3      OH2             7.1610637059       23.1016911289      -40.2581164078  TIP3      3732            0.0000000000
     24995      3832  TIP3      H1              7.5137612414       24.0133829433      -40.2434008389  TIP3      3732            0.0000000000
     24996      3832  TIP3      H2              7.9683709387       22.5544280295      -40.2036949740  TIP3      3732            0.0000000000
     24997      3833  TIP3      OH2            -9.7104960356       20.2266096731      -28.0792382159  TIP3      3733            0.0000000000
     24998      3833  TIP3      H1            -10.2393313087       20.1324157654      -28.8846354115  TIP3      3733            0.0000000000
     24999      3833  TIP3      H2             -9.3864467577       19.3029628618      -28.0003799441  TIP3      3733            0.0000000000
     25000      3834  TIP3      OH2           -10.2358093485       22.7260476421      -31.2256884175  TIP3      3734            0.0000000000
     25001      3834  TIP3      H1             -9.3374580070       22.5000608145      -30.9433346467  TIP3      3734            0.0000000000
     25002      3834  TIP3      H2            -10.4409465658       23.4650367726      -30.6357268529  TIP3      3734            0.0000000000
     25003      3835  TIP3      OH2             7.8331434575       23.5181189801      -25.6403432781  TIP3      3735            0.0000000000
     25004      3835  TIP3      H1              7.6453837591       22.5730957203      -25.7400408081  TIP3      3735            0.0000000000
     25005      3835  TIP3      H2              7.0195103286       23.8226531503      -25.1733606810  TIP3      3735            0.0000000000
     25006      3836  TIP3      OH2            -1.5016773868       23.0370411614      -26.0081789746  TIP3      3736            0.0000000000
     25007      3836  TIP3      H1             -1.7373757507       23.9192457268      -25.6595190093  TIP3      3736            0.0000000000
     25008      3836  TIP3      H2             -2.3916477001       22.6247598783      -26.1113933930  TIP3      3736            0.0000000000
     25009      3837  TIP3      OH2            -0.4774898178       26.9072612073      -36.9243853793  TIP3      3737            0.0000000000
     25010      3837  TIP3      H1             -0.6460207879       27.1509135384      -37.8579755186  TIP3      3737            0.0000000000
     25011      3837  TIP3      H2             -0.4814772684       27.7868784398      -36.4882599817  TIP3      3737            0.0000000000
     25012      3838  TIP3      OH2            -6.8969621771       25.4090329152      -34.7901525560  TIP3      3738            0.0000000000
     25013      3838  TIP3      H1             -6.6383266981       24.9849367079      -33.9410105025  TIP3      3738            0.0000000000
     25014      3838  TIP3      H2             -7.7219006402       24.9038260332      -35.0047797742  TIP3      3738            0.0000000000
     25015      3839  TIP3      OH2             2.1915803347       25.8134646580      -39.7236764030  TIP3      3739            0.0000000000
     25016      3839  TIP3      H1              2.7043248427       25.1043139431      -40.1450381272  TIP3      3739            0.0000000000
     25017      3839  TIP3      H2              2.3570019649       25.6637312307      -38.7637684621  TIP3      3739            0.0000000000
     25018      3840  TIP3      OH2             2.0430902786       25.6208470075      -37.0907858973  TIP3      3740            0.0000000000
     25019      3840  TIP3      H1              1.1840859545       26.0875187176      -37.0141390233  TIP3      3740            0.0000000000
     25020      3840  TIP3      H2              1.8090477018       24.7456765615      -36.7494622802  TIP3      3740            0.0000000000
     25021      3841  TIP3      OH2             4.5203307599       14.7026837356      -24.7334700067  TIP3      3741            0.0000000000
     25022      3841  TIP3      H1              4.2654073388       15.1211415707      -25.5811437403  TIP3      3741            0.0000000000
     25023      3841  TIP3      H2              4.7409930323       13.8050032584      -25.0325575405  TIP3      3741            0.0000000000
     25024      3842  TIP3      OH2            -7.4420748418       21.2017675195      -26.9731265709  TIP3      3742            0.0000000000
     25025      3842  TIP3      H1             -7.3131804855       20.6668203055      -26.1575578753  TIP3      3742            0.0000000000
     25026      3842  TIP3      H2             -8.3507290271       20.9597040847      -27.2607086629  TIP3      3742            0.0000000000
     25027      3843  TIP3      OH2            -5.1509396852        9.8299497024      -31.1889812795  TIP3      3743            0.0000000000
     25028      3843  TIP3      H1             -6.0767897343        9.7123321372      -31.4829058346  TIP3      3743            0.0000000000
     25029      3843  TIP3      H2             -5.3004784578       10.3981389972      -30.4027278718  TIP3      3743            0.0000000000
     25030      3844  TIP3      OH2            -0.2693176579        9.2707113295      -27.7497457338  TIP3      3744            0.0000000000
     25031      3844  TIP3      H1              0.1297413003        8.9262260341      -26.9216397667  TIP3      3744            0.0000000000
     25032      3844  TIP3      H2             -1.2417796598        9.3041932347      -27.5615913448  TIP3      3744            0.0000000000
     25033      3845  TIP3      OH2             2.5047791187       13.5996339541      -26.4061976766  TIP3      3745            0.0000000000
     25034      3845  TIP3      H1              1.7970773886       13.6242022321      -25.7322902505  TIP3      3745            0.0000000000
     25035      3845  TIP3      H2              2.7823093164       14.5351927216      -26.5276437008  TIP3      3745            0.0000000000
     25036      3846  TIP3      OH2             3.2392637774       18.5590204880      -40.4080031150  TIP3      3746            0.0000000000
     25037      3846  TIP3      H1              3.0937894741       18.6011618472      -41.3644917594  TIP3      3746            0.0000000000
     25038      3846  TIP3      H2              4.1830593852       18.7921925514      -40.3898969988  TIP3      3746            0.0000000000
     25039      3847  TIP3      OH2            -0.5250793343       12.3902771198      -40.2458866276  TIP3      3747            0.0000000000
     25040      3847  TIP3      H1             -1.3315296500       12.2932327688      -39.7094717922  TIP3      3747            0.0000000000
     25041      3847  TIP3      H2             -0.4766324819       11.5049828266      -40.6390641098  TIP3      3747            0.0000000000
     25042      3848  TIP3      OH2            -4.8517249371       14.6812732950      -29.5807152876  TIP3      3748            0.0000000000
     25043      3848  TIP3      H1             -5.7186335142       14.7150324917      -29.1323791030  TIP3      3748            0.0000000000
     25044      3848  TIP3      H2             -4.8099967666       15.6139662897      -29.8923878300  TIP3      3748            0.0000000000
     25045      3849  TIP3      OH2            -4.9586835837       14.7084300003      -34.6667149052  TIP3      3749            0.0000000000
     25046      3849  TIP3      H1             -5.8403641326       14.8578115791      -35.0637337614  TIP3      3749            0.0000000000
     25047      3849  TIP3      H2             -4.4776875595       14.3183775689      -35.4200499776  TIP3      3749            0.0000000000
     25048      3850  TIP3      OH2             0.5638277274       15.6166122044      -35.9186619832  TIP3      3750            0.0000000000
     25049      3850  TIP3      H1              0.1964461960       16.3395030079      -36.4851797746  TIP3      3750            0.0000000000
     25050      3850  TIP3      H2              1.1292799857       15.1756175239      -36.5745364558  TIP3      3750            0.0000000000
     25051      3851  TIP3      OH2            -0.2362999518       15.8330130995      -24.8414683865  TIP3      3751            0.0000000000
     25052      3851  TIP3      H1             -0.7512805151       15.0158807428      -24.7087529776  TIP3      3751            0.0000000000
     25053      3851  TIP3      H2              0.2675644730       15.8482848853      -24.0137504922  TIP3      3751            0.0000000000
     25054      3852  TIP3      OH2             1.7337439760       15.1545828769      -32.9486820766  TIP3      3752            0.0000000000
     25055      3852  TIP3      H1              1.4198646531       15.9844487742      -33.3531719779  TIP3      3752            0.0000000000
     25056      3852  TIP3      H2              1.4738462022       14.5117967782      -33.6252320315  TIP3      3752            0.0000000000
     25057      3853  TIP3      OH2            -7.3806491774       14.7461290679      -28.5023674918  TIP3      3753            0.0000000000
     25058      3853  TIP3      H1             -7.1369022112       15.1355025019      -27.6454082997  TIP3      3753            0.0000000000
     25059      3853  TIP3      H2             -7.6777248532       13.8579619198      -28.2140205927  TIP3      3753            0.0000000000
     25060      3854  TIP3      OH2            -4.2966679244       12.6056515715      -41.0588972215  TIP3      3754            0.0000000000
     25061      3854  TIP3      H1             -4.5883416462       12.0426670286      -40.3177563671  TIP3      3754            0.0000000000
     25062      3854  TIP3      H2             -4.4958092941       13.4972885294      -40.7363144172  TIP3      3754            0.0000000000
     25063      3855  TIP3      OH2           -10.6770131663       11.8846641415      -33.9821107123  TIP3      3755            0.0000000000
     25064      3855  TIP3      H1            -10.0167748480       11.9839152424      -33.2759625568  TIP3      3755            0.0000000000
     25065      3855  TIP3      H2            -10.2340937741       12.2799664597      -34.7449727435  TIP3      3755            0.0000000000
     25066      3856  TIP3      OH2            -9.8214718011       12.7057459776      -38.7244406802  TIP3      3756            0.0000000000
     25067      3856  TIP3      H1             -9.0194328149       12.8414015147      -39.2681415959  TIP3      3756            0.0000000000
     25068      3856  TIP3      H2             -9.9595129524       13.6025988518      -38.3939391237  TIP3      3756            0.0000000000
     25069      3857  TIP3      OH2             0.6729250503       16.6033516909      -28.9678822459  TIP3      3757            0.0000000000
     25070      3857  TIP3      H1              1.2405573988       15.8793775960      -29.3206786699  TIP3      3757            0.0000000000
     25071      3857  TIP3      H2              0.0802321229       16.0752435981      -28.3895806769  TIP3      3757            0.0000000000
     25072      3858  TIP3      OH2            -2.0698429305       12.1304776633      -33.6210139242  TIP3      3758            0.0000000000
     25073      3858  TIP3      H1             -3.0237584096       12.0864410042      -33.4376279704  TIP3      3758            0.0000000000
     25074      3858  TIP3      H2             -1.6685079114       11.8469552571      -32.7852207817  TIP3      3758            0.0000000000
     25075      3859  TIP3      OH2            -7.5929643279       14.0679888694      -34.9347868615  TIP3      3759            0.0000000000
     25076      3859  TIP3      H1             -8.3701060943       14.2402551175      -35.5121188265  TIP3      3759            0.0000000000
     25077      3859  TIP3      H2             -7.2198205212       13.2606884528      -35.3184070234  TIP3      3759            0.0000000000
     25078      3860  TIP3      OH2            -4.4187658321       14.0832945817      -37.4734172406  TIP3      3760            0.0000000000
     25079      3860  TIP3      H1             -3.4857711582       14.1964615705      -37.2169878777  TIP3      3760            0.0000000000
     25080      3860  TIP3      H2             -4.5972933894       14.8801627909      -37.9981652587  TIP3      3760            0.0000000000
     25081      3861  TIP3      OH2             1.7642087370       11.8537536501      -30.4860046799  TIP3      3761            0.0000000000
     25082      3861  TIP3      H1              1.2022526376       11.6393611027      -29.7210192946  TIP3      3761            0.0000000000
     25083      3861  TIP3      H2              1.4270900933       11.2034091640      -31.1472104488  TIP3      3761            0.0000000000
     25084      3862  TIP3      OH2            -5.4786094418       15.7735495899      -40.2760633015  TIP3      3762            0.0000000000
     25085      3862  TIP3      H1             -6.1950618222       15.4777178241      -40.8670867075  TIP3      3762            0.0000000000
     25086      3862  TIP3      H2             -4.7141482864       15.8310795270      -40.8710503775  TIP3      3762            0.0000000000
     25087      3863  TIP3      OH2             4.9942819405       27.7354475856      -25.1568531017  TIP3      3763            0.0000000000
     25088      3863  TIP3      H1              5.6604072652       27.6761901883      -25.8791062415  TIP3      3763            0.0000000000
     25089      3863  TIP3      H2              5.5269771975       27.7832090260      -24.3556763460  TIP3      3763            0.0000000000
     25090      3864  TIP3      OH2            -7.2223714942       19.8118775597      -24.6448622785  TIP3      3764            0.0000000000
     25091      3864  TIP3      H1             -6.4996022398       19.7943232344      -23.9643511445  TIP3      3764            0.0000000000
     25092      3864  TIP3      H2             -8.0192985997       19.5654768732      -24.1061461158  TIP3      3764            0.0000000000
     25093      3865  TIP3      OH2            -1.7503491681       15.2340807568      -32.2261860006  TIP3      3765            0.0000000000
     25094      3865  TIP3      H1             -0.8229364878       14.9506527755      -32.2925821967  TIP3      3765            0.0000000000
     25095      3865  TIP3      H2             -2.1654259824       14.4680261876      -31.7891401763  TIP3      3765            0.0000000000
     25096      3866  TIP3      OH2            -6.5091814952       10.9445658113      -35.6389883864  TIP3      3766            0.0000000000
     25097      3866  TIP3      H1             -7.1460512607       10.3616753644      -35.1582959933  TIP3      3766            0.0000000000
     25098      3866  TIP3      H2             -5.7424037146       10.3600363663      -35.7391824821  TIP3      3766            0.0000000000
     25099      3867  TIP3      OH2            -2.5574488930       13.3094535884      -29.6914715840  TIP3      3767            0.0000000000
     25100      3867  TIP3      H1             -3.3388151867       13.8975059101      -29.6001194919  TIP3      3767            0.0000000000
     25101      3867  TIP3      H2             -1.9510565704       13.7323448715      -29.0619811730  TIP3      3767            0.0000000000
     25102      3868  TIP3      OH2            -1.9554724832       19.7233224913      -37.6498089590  TIP3      3768            0.0000000000
     25103      3868  TIP3      H1             -2.6656066919       19.1011401056      -37.9168880388  TIP3      3768            0.0000000000
     25104      3868  TIP3      H2             -2.3481764623       20.0924083008      -36.8281729174  TIP3      3768            0.0000000000
     25105      3869  TIP3      OH2             5.4637646963       19.0171563162      -28.8178657688  TIP3      3769            0.0000000000
     25106      3869  TIP3      H1              5.9654430569       19.5402495409      -29.4766572117  TIP3      3769            0.0000000000
     25107      3869  TIP3      H2              4.6027173838       18.9645150396      -29.2698824120  TIP3      3769            0.0000000000
     25108      3870  TIP3      OH2             2.1643697647       12.5654040620      -39.6686661569  TIP3      3770            0.0000000000
     25109      3870  TIP3      H1              1.2157551612       12.3762265805      -39.7803345705  TIP3      3770            0.0000000000
     25110      3870  TIP3      H2              2.1142355703       13.4524902018      -39.2453970978  TIP3      3770            0.0000000000
     25111      3871  TIP3      OH2            -0.6571671976       20.1779851464      -26.3652718352  TIP3      3771            0.0000000000
     25112      3871  TIP3      H1             -0.9778801702       19.8623392097      -25.5045182990  TIP3      3771            0.0000000000
     25113      3871  TIP3      H2             -1.0067366790       21.0810295071      -26.3577338763  TIP3      3771            0.0000000000
     25114      3872  TIP3      OH2             2.3267025232       14.7601760675      -38.1027694623  TIP3      3772            0.0000000000
     25115      3872  TIP3      H1              2.9945049362       14.4452257382      -37.4643486852  TIP3      3772            0.0000000000
     25116      3872  TIP3      H2              2.5609350536       15.7045224462      -38.2007329910  TIP3      3772            0.0000000000
     25117      3873  TIP3      OH2            -6.8685558839       19.3274145719      -32.3824213664  TIP3      3773            0.0000000000
     25118      3873  TIP3      H1             -6.3778977031       19.2524178811      -33.2253933072  TIP3      3773            0.0000000000
     25119      3873  TIP3      H2             -6.5297983227       18.5907652187      -31.8503114557  TIP3      3773            0.0000000000
     25120      3874  TIP3      OH2             0.0833232263       21.2566165501      -38.2626296548  TIP3      3774            0.0000000000
     25121      3874  TIP3      H1             -0.3833173061       22.1128178553      -38.2853041290  TIP3      3774            0.0000000000
     25122      3874  TIP3      H2             -0.6657760240       20.6203273105      -38.2155925558  TIP3      3774            0.0000000000
     25123      3875  TIP3      OH2            -9.5434310654       17.4980353933      -27.1092175014  TIP3      3775            0.0000000000
     25124      3875  TIP3      H1             -9.8858782449       16.9945234847      -26.3509744385  TIP3      3775            0.0000000000
     25125      3875  TIP3      H2            -10.1933647030       17.2670500283      -27.8024400495  TIP3      3775            0.0000000000
     25126      3876  TIP3      OH2            -2.5348432991       17.1568280829      -25.0891730815  TIP3      3776            0.0000000000
     25127      3876  TIP3      H1             -3.1086498291       16.8091442511      -25.7953810953  TIP3      3776            0.0000000000
     25128      3876  TIP3      H2             -1.6533387701       16.8853827363      -25.4378944944  TIP3      3776            0.0000000000
     25129      3877  TIP3      OH2             2.0497354510       22.6832519840      -26.5489055449  TIP3      3777            0.0000000000
     25130      3877  TIP3      H1              1.2855589160       22.6334538745      -27.1300561751  TIP3      3777            0.0000000000
     25131      3877  TIP3      H2              1.6066328848       22.9531944184      -25.7190993385  TIP3      3777            0.0000000000
     25132      3878  TIP3      OH2             7.0501272884       14.7702441247      -37.7355729093  TIP3      3778            0.0000000000
     25133      3878  TIP3      H1              6.8413134375       14.6601707485      -38.6879127160  TIP3      3778            0.0000000000
     25134      3878  TIP3      H2              7.4235280345       15.6685870062      -37.7374283191  TIP3      3778            0.0000000000
     25135      3879  TIP3      OH2             7.6256695970       20.6395667198      -25.6859410800  TIP3      3779            0.0000000000
     25136      3879  TIP3      H1              6.6950015049       20.7745388463      -25.9662379742  TIP3      3779            0.0000000000
     25137      3879  TIP3      H2              8.0708764165       20.4930906580      -26.5515985165  TIP3      3779            0.0000000000
     25138      3880  TIP3      OH2             5.8302957855       23.2788752267      -37.7487838213  TIP3      3780            0.0000000000
     25139      3880  TIP3      H1              5.4373126511       22.3942108741      -37.7638577371  TIP3      3780            0.0000000000
     25140      3880  TIP3      H2              6.2743409665       23.2931734645      -38.6203995967  TIP3      3780            0.0000000000
     25141      3881  TIP3      OH2             2.9521465867       18.4073201680      -30.8699427220  TIP3      3781            0.0000000000
     25142      3881  TIP3      H1              2.0297271848       18.3169914238      -31.1493740142  TIP3      3781            0.0000000000
     25143      3881  TIP3      H2              3.3900128282       17.8077043782      -31.4999976966  TIP3      3781            0.0000000000
     25144      3882  TIP3      OH2            -4.6052121968       22.6230547556      -34.7064663409  TIP3      3782            0.0000000000
     25145      3882  TIP3      H1             -4.3750568451       23.5687396025      -34.8156519720  TIP3      3782            0.0000000000
     25146      3882  TIP3      H2             -5.4677183947       22.6117366715      -35.1415430055  TIP3      3782            0.0000000000
     25147      3883  TIP3      OH2            -8.3708490339       17.1698684669      -40.2596323272  TIP3      3783            0.0000000000
     25148      3883  TIP3      H1             -8.0930563735       17.8010418461      -39.5694973955  TIP3      3783            0.0000000000
     25149      3883  TIP3      H2             -9.3314550638       17.3166531296      -40.3056259482  TIP3      3783            0.0000000000
     25150      3884  TIP3      OH2            -3.2861520878       20.4279753336      -35.3103218105  TIP3      3784            0.0000000000
     25151      3884  TIP3      H1             -3.7706494205       21.2610118560      -35.1067546298  TIP3      3784            0.0000000000
     25152      3884  TIP3      H2             -3.7845278133       19.7741226863      -34.7943187901  TIP3      3784            0.0000000000
     25153      3885  TIP3      OH2            -2.4471345596       24.3116405102      -28.2782007517  TIP3      3785            0.0000000000
     25154      3885  TIP3      H1             -1.8586646871       24.9326995861      -28.7312690813  TIP3      3785            0.0000000000
     25155      3885  TIP3      H2             -1.8298014977       23.9018180245      -27.6369534190  TIP3      3785            0.0000000000
     25156      3886  TIP3      OH2            -4.2626052948       25.1902336496      -35.5809661205  TIP3      3786            0.0000000000
     25157      3886  TIP3      H1             -5.2042638521       25.4215548068      -35.4306464080  TIP3      3786            0.0000000000
     25158      3886  TIP3      H2             -3.8372712812       25.9195469481      -35.0808422879  TIP3      3786            0.0000000000
     25159      3887  TIP3      OH2             0.6128123235       20.3152079429      -29.0964943090  TIP3      3787            0.0000000000
     25160      3887  TIP3      H1              0.3141626157       20.0432812431      -28.2007232485  TIP3      3787            0.0000000000
     25161      3887  TIP3      H2              0.9425879799       19.4653885460      -29.4345914167  TIP3      3787            0.0000000000
     25162      3888  TIP3      OH2             3.4137819582       21.4726238867      -39.7901523062  TIP3      3788            0.0000000000
     25163      3888  TIP3      H1              3.3589072391       21.0794690415      -38.8909642718  TIP3      3788            0.0000000000
     25164      3888  TIP3      H2              2.5573933885       21.1789457085      -40.1384042274  TIP3      3788            0.0000000000
     25165      3889  TIP3      OH2             4.2791650356       24.6727678160      -27.2062991076  TIP3      3789            0.0000000000
     25166      3889  TIP3      H1              3.4506885261       24.1823381814      -27.0463492564  TIP3      3789            0.0000000000
     25167      3889  TIP3      H2              3.9532230141       25.4846538499      -27.6650851028  TIP3      3789            0.0000000000
     25168      3890  TIP3      OH2             7.5414092559       25.8260173123      -39.7132213144  TIP3      3790            0.0000000000
     25169      3890  TIP3      H1              7.6788114400       26.2207737694      -40.5935367849  TIP3      3790            0.0000000000
     25170      3890  TIP3      H2              6.7997772920       26.3668223719      -39.3540738252  TIP3      3790            0.0000000000
     25171      3891  TIP3      OH2            -7.9997628098       12.3911784899      -27.3424714999  TIP3      3791            0.0000000000
     25172      3891  TIP3      H1             -8.8322762142       12.8539847972      -27.1414787173  TIP3      3791            0.0000000000
     25173      3891  TIP3      H2             -8.1383901412       11.5615336173      -26.8622072613  TIP3      3791            0.0000000000
     25174      3892  TIP3      OH2             4.0298286355       20.1356410582      -37.4501276526  TIP3      3792            0.0000000000
     25175      3892  TIP3      H1              3.9124366308       19.2282999493      -37.0936181399  TIP3      3792            0.0000000000
     25176      3892  TIP3      H2              4.9624822586       20.0780765478      -37.7349358269  TIP3      3792            0.0000000000
     25177      3893  TIP3      OH2            -8.3614160038       23.9325947444      -28.8503534681  TIP3      3793            0.0000000000
     25178      3893  TIP3      H1             -7.7551175455       23.1852308526      -28.7665407903  TIP3      3793            0.0000000000
     25179      3893  TIP3      H2             -8.1960553690       24.4291405517      -28.0359906630  TIP3      3793            0.0000000000
     25180      3894  TIP3      OH2            -3.9583674005       22.2971772308      -38.9843931225  TIP3      3794            0.0000000000
     25181      3894  TIP3      H1             -3.5963311279       21.6336590271      -38.3723071542  TIP3      3794            0.0000000000
     25182      3894  TIP3      H2             -3.8037516568       23.1630322153      -38.5344374411  TIP3      3794            0.0000000000
     25183      3895  TIP3      OH2            -7.5722404562       19.1107753882      -38.3703116298  TIP3      3795            0.0000000000
     25184      3895  TIP3      H1             -8.2109570961       19.5889581894      -37.7950425564  TIP3      3795            0.0000000000
     25185      3895  TIP3      H2             -7.3976679878       19.7990487678      -39.0358474767  TIP3      3795            0.0000000000
     25186      3896  TIP3      OH2             0.3956257375       12.1715626510      -27.8808143461  TIP3      3796            0.0000000000
     25187      3896  TIP3      H1              1.1229032766       12.3723897548      -27.2620244799  TIP3      3796            0.0000000000
     25188      3896  TIP3      H2              0.1318003782       11.2752243820      -27.6193482419  TIP3      3796            0.0000000000
     25189      3897  TIP3      OH2             1.0510929259       11.6459691022      -37.0915548518  TIP3      3797            0.0000000000
     25190      3897  TIP3      H1              1.6293029301       12.0232334787      -37.7714475245  TIP3      3797            0.0000000000
     25191      3897  TIP3      H2              1.5205071433       11.8917373063      -36.2586788632  TIP3      3797            0.0000000000
     25192      3898  TIP3      OH2            -0.9191162661       23.9986225365      -38.2526957206  TIP3      3798            0.0000000000
     25193      3898  TIP3      H1             -1.8150258125       24.3942804256      -38.1492311593  TIP3      3798            0.0000000000
     25194      3898  TIP3      H2             -0.7837382037       24.1310041010      -39.2180748594  TIP3      3798            0.0000000000
     25195      3899  TIP3      OH2            -1.8609290962       13.7106874857      -35.9333328998  TIP3      3799            0.0000000000
     25196      3899  TIP3      H1             -1.0760432613       14.2925893377      -35.8683737728  TIP3      3799            0.0000000000
     25197      3899  TIP3      H2             -1.8309324139       13.1729067845      -35.1076541947  TIP3      3799            0.0000000000
     25198      3900  TIP3      OH2            -0.4680266943       14.6353926521      -27.4784105454  TIP3      3800            0.0000000000
     25199      3900  TIP3      H1             -0.1990846702       14.6609302240      -26.5423141064  TIP3      3800            0.0000000000
     25200      3900  TIP3      H2             -0.0787446055       13.7868209601      -27.7901617035  TIP3      3800            0.0000000000
     25201      3901  TIP3      OH2            -0.5560776803       10.2110963624      -35.4642457192  TIP3      3801            0.0000000000
     25202      3901  TIP3      H1             -1.2215868130       10.8574399154      -35.1512585258  TIP3      3801            0.0000000000
     25203      3901  TIP3      H2              0.0655981089       10.7805883815      -35.9832416592  TIP3      3801            0.0000000000
     25204      3902  TIP3      OH2            -3.5125270537       24.9341420581      -38.1230132262  TIP3      3802            0.0000000000
     25205      3902  TIP3      H1             -3.3597703627       25.7746763238      -38.6242682351  TIP3      3802            0.0000000000
     25206      3902  TIP3      H2             -4.0033123481       25.2612336978      -37.3406270531  TIP3      3802            0.0000000000
     25207      3903  TIP3      OH2            -5.0677541928       11.5937388243      -38.5054249498  TIP3      3803            0.0000000000
     25208      3903  TIP3      H1             -5.2757286811       12.4101918413      -38.0194243071  TIP3      3803            0.0000000000
     25209      3903  TIP3      H2             -4.1307224819       11.4588361052      -38.2580318111  TIP3      3803            0.0000000000
     25210      3904  TIP3      OH2             5.0491511921       12.3943365164      -26.3502323198  TIP3      3804            0.0000000000
     25211      3904  TIP3      H1              4.0831873053       12.5524655136      -26.3675535129  TIP3      3804            0.0000000000
     25212      3904  TIP3      H2              5.2475182327       12.2672448666      -27.2995641647  TIP3      3804            0.0000000000
     25213      3905  TIP3      OH2             4.2250920939       16.4582301685      -32.6519757820  TIP3      3805            0.0000000000
     25214      3905  TIP3      H1              3.4236892060       15.9389199936      -32.4654744613  TIP3      3805            0.0000000000
     25215      3905  TIP3      H2              4.8892767942       15.9507837206      -32.1278214233  TIP3      3805            0.0000000000
     25216      3906  TIP3      OH2            -6.7838447197       21.9842334901      -39.9839547467  TIP3      3806            0.0000000000
     25217      3906  TIP3      H1             -6.0130789293       22.2220163378      -39.4391272989  TIP3      3806            0.0000000000
     25218      3906  TIP3      H2             -6.3650466578       21.4599438658      -40.6981091655  TIP3      3806            0.0000000000
     25219      3907  TIP3      OH2            -8.2180272921       14.3644879680      -40.2561174013  TIP3      3807            0.0000000000
     25220      3907  TIP3      H1             -8.0546863994       15.2970718755      -40.0237695548  TIP3      3807            0.0000000000
     25221      3907  TIP3      H2             -9.0015734841       14.4623480755      -40.8101976893  TIP3      3807            0.0000000000
     25222      3908  TIP3      OH2             5.1750845048       25.9210976937      -30.5742092116  TIP3      3808            0.0000000000
     25223      3908  TIP3      H1              5.0192006793       26.5996966593      -31.2843392883  TIP3      3808            0.0000000000
     25224      3908  TIP3      H2              6.1284941832       26.0949379851      -30.3792152483  TIP3      3808            0.0000000000
     25225      3909  TIP3      OH2            -7.7371099760        9.3449600728      -31.6963224636  TIP3      3809            0.0000000000
     25226      3909  TIP3      H1             -7.8141542981        9.2029582315      -32.6613835444  TIP3      3809            0.0000000000
     25227      3909  TIP3      H2             -7.9640645723        8.4438215630      -31.3789380156  TIP3      3809            0.0000000000
     25228      3910  TIP3      OH2            -8.8729779831       23.8795648396      -35.6479968745  TIP3      3810            0.0000000000
     25229      3910  TIP3      H1             -9.7491255102       23.9755411230      -35.2617566740  TIP3      3810            0.0000000000
     25230      3910  TIP3      H2             -9.0600825082       24.0933096682      -36.5872412932  TIP3      3810            0.0000000000
     25231      3911  TIP3      OH2            -9.3342575509       25.6968790670      -24.3864931226  TIP3      3811            0.0000000000
     25232      3911  TIP3      H1             -8.3852638424       25.5427075649      -24.4797018566  TIP3      3811            0.0000000000
     25233      3911  TIP3      H2             -9.6973860036       24.8323080250      -24.6777325590  TIP3      3811            0.0000000000
     25234      3912  TIP3      OH2            -5.2116236483       24.9428080468      -22.9882403434  TIP3      3812            0.0000000000
     25235      3912  TIP3      H1             -4.5892801731       24.3347247742      -22.5491353219  TIP3      3812            0.0000000000
     25236      3912  TIP3      H2             -5.2170032382       24.5594519103      -23.8977887536  TIP3      3812            0.0000000000
     25237      3913  TIP3      OH2            -0.8848688071       24.3939793469      -40.9951354230  TIP3      3813            0.0000000000
     25238      3913  TIP3      H1             -0.7066306117       23.6202038595      -41.5522810115  TIP3      3813            0.0000000000
     25239      3913  TIP3      H2             -0.9811718094       25.0887590372      -41.6751142386  TIP3      3813            0.0000000000
     25240      3914  TIP3      OH2             1.4187485479       23.4669271258      -23.7681545960  TIP3      3814            0.0000000000
     25241      3914  TIP3      H1              1.2261422653       22.6743383783      -23.2574595969  TIP3      3814            0.0000000000
     25242      3914  TIP3      H2              2.2031382636       23.8475472129      -23.3073611855  TIP3      3814            0.0000000000
     25243      3915  TIP3      OH2             4.2727640330       23.9371490086      -41.2590322130  TIP3      3815            0.0000000000
     25244      3915  TIP3      H1              4.2651759556       23.4034845753      -40.4384720546  TIP3      3815            0.0000000000
     25245      3915  TIP3      H2              5.1132660701       23.6509764999      -41.6584057626  TIP3      3815            0.0000000000
     25246      3916  TIP3      OH2            -9.7172730005       19.5265919579      -23.7371009285  TIP3      3816            0.0000000000
     25247      3916  TIP3      H1            -10.0895019733       18.6365920127      -23.7153579049  TIP3      3816            0.0000000000
     25248      3916  TIP3      H2            -10.3105149731       19.9829018420      -24.3755713687  TIP3      3816            0.0000000000
     25249      3917  TIP3      OH2            -4.9656626494       19.9357838758      -41.0823259519  TIP3      3817            0.0000000000
     25250      3917  TIP3      H1             -4.6408323200       19.4814975434      -40.2803531366  TIP3      3817            0.0000000000
     25251      3917  TIP3      H2             -4.5011829934       19.4586314990      -41.7941849872  TIP3      3817            0.0000000000
     25252      3918  TIP3      OH2            -2.6496013937       19.7881730542      -24.2939220366  TIP3      3818            0.0000000000
     25253      3918  TIP3      H1             -2.9167812505       20.3539598776      -25.0487348105  TIP3      3818            0.0000000000
     25254      3918  TIP3      H2             -2.7006344248       18.8809601706      -24.6782266415  TIP3      3818            0.0000000000
     25255      3919  TIP3      OH2             2.7078348928       19.6124293796      -26.5284137053  TIP3      3819            0.0000000000
     25256      3919  TIP3      H1              3.5134893935       20.1635975035      -26.6276221808  TIP3      3819            0.0000000000
     25257      3919  TIP3      H2              2.0339159400       20.3101220615      -26.4281924690  TIP3      3819            0.0000000000
     25258      3920  TIP3      OH2            -8.4540494565       16.8291565199      -23.8430258821  TIP3      3820            0.0000000000
     25259      3920  TIP3      H1             -8.0538028677       16.0430638796      -23.4608841871  TIP3      3820            0.0000000000
     25260      3920  TIP3      H2             -8.4679226379       17.4274846430      -23.0747507677  TIP3      3820            0.0000000000
     25261      3921  TIP3      OH2            -3.9276771380       18.3234761634      -38.8371331984  TIP3      3821            0.0000000000
     25262      3921  TIP3      H1             -4.6585106314       17.8479730275      -38.4174932235  TIP3      3821            0.0000000000
     25263      3921  TIP3      H2             -3.5402151049       17.6420357541      -39.4263899204  TIP3      3821            0.0000000000
     25264      3922  TIP3      OH2            -4.7940161309       15.8854023903      -26.4241003560  TIP3      3822            0.0000000000
     25265      3922  TIP3      H1             -5.4543936650       16.5951634203      -26.2757672873  TIP3      3822            0.0000000000
     25266      3922  TIP3      H2             -4.3434070296       16.2614708278      -27.2005953147  TIP3      3822            0.0000000000
     25267      3923  TIP3      OH2            -2.6813839394       16.5888895365      -40.8212392070  TIP3      3823            0.0000000000
     25268      3923  TIP3      H1             -2.4335367452       16.4919959208      -41.7486934254  TIP3      3823            0.0000000000
     25269      3923  TIP3      H2             -1.7970884600       16.6653866911      -40.3857654971  TIP3      3823            0.0000000000
     25270      3924  TIP3      OH2             0.6478181408       18.4492290903      -23.3942959174  TIP3      3824            0.0000000000
     25271      3924  TIP3      H1              1.0399393790       18.1955517202      -24.2438336526  TIP3      3824            0.0000000000
     25272      3924  TIP3      H2             -0.0392847631       17.7764295943      -23.2831659673  TIP3      3824            0.0000000000
     25273      3925  TIP3      OH2             5.6730332901       18.7968985590      -41.6232954269  TIP3      3825            0.0000000000
     25274      3925  TIP3      H1              5.7069981141       18.7955748843      -42.5979259302  TIP3      3825            0.0000000000
     25275      3925  TIP3      H2              5.4965342173       19.7329926714      -41.4803758167  TIP3      3825            0.0000000000
     25276      3926  TIP3      OH2            -3.9354331835       13.4507951824      -25.8835518303  TIP3      3826            0.0000000000
     25277      3926  TIP3      H1             -4.0767301018       12.8859168927      -26.6762129268  TIP3      3826            0.0000000000
     25278      3926  TIP3      H2             -4.2854223438       14.3229328549      -26.1838816799  TIP3      3826            0.0000000000
     25279      3927  TIP3      OH2            -3.9765444076       11.6927664418      -27.9278801589  TIP3      3827            0.0000000000
     25280      3927  TIP3      H1             -3.4645004222       12.0972404526      -28.6590169520  TIP3      3827            0.0000000000
     25281      3927  TIP3      H2             -4.8711034855       11.6536167012      -28.3170935472  TIP3      3827            0.0000000000
     25282      3928  TIP3      OH2            -2.7325919369       17.4728113413      -27.8845587459  TIP3      3828            0.0000000000
     25283      3928  TIP3      H1             -1.8865576650       17.7292860993      -28.2747549847  TIP3      3828            0.0000000000
     25284      3928  TIP3      H2             -3.3326221230       18.1541880404      -28.2629987726  TIP3      3828            0.0000000000
     25285      3929  TIP3      OH2             1.8208058412       15.0011825228      -22.7528504595  TIP3      3829            0.0000000000
     25286      3929  TIP3      H1              1.9054599127       14.0882016094      -23.0709247945  TIP3      3829            0.0000000000
     25287      3929  TIP3      H2              2.6522222336       15.4029365709      -23.0632919739  TIP3      3829            0.0000000000
     25288      3930  TIP3      OH2             3.6014851412       17.9346418273      -24.5660006908  TIP3      3830            0.0000000000
     25289      3930  TIP3      H1              3.2441580639       18.5215362107      -25.2646440760  TIP3      3830            0.0000000000
     25290      3930  TIP3      H2              4.5499286888       17.8886436458      -24.7893044274  TIP3      3830            0.0000000000
     25291      3931  TIP3      OH2            -2.9887589302        9.2077241849      -27.9711240690  TIP3      3831            0.0000000000
     25292      3931  TIP3      H1             -3.4209566009       10.0758669174      -27.8247423014  TIP3      3831            0.0000000000
     25293      3931  TIP3      H2             -3.7456856162        8.6474061020      -28.2010410100  TIP3      3831            0.0000000000
     25294      3932  TIP3      OH2            -2.0810326811       13.6472552270      -23.9879068301  TIP3      3832            0.0000000000
     25295      3932  TIP3      H1             -2.6737269986       14.3130610128      -23.5905008078  TIP3      3832            0.0000000000
     25296      3932  TIP3      H2             -2.6386821102       13.3680741373      -24.7477068150  TIP3      3832            0.0000000000
     25297      3933  TIP3      OH2             0.5873222977       12.7270502347      -24.6700174004  TIP3      3833            0.0000000000
     25298      3933  TIP3      H1             -0.2956062879       12.7614877250      -24.2600154262  TIP3      3833            0.0000000000
     25299      3933  TIP3      H2              1.1252945465       12.1580986779      -24.0762540536  TIP3      3833            0.0000000000
     25300      3934  TIP3      OH2             2.4986965837       11.2485274386      -23.1357480649  TIP3      3834            0.0000000000
     25301      3934  TIP3      H1              2.2654204452       10.2964043562      -23.1337810052  TIP3      3834            0.0000000000
     25302      3934  TIP3      H2              2.4858284665       11.4657233763      -22.1776247270  TIP3      3834            0.0000000000
     25303      3935  TIP3      OH2            -8.0078252256       12.7399808147      -23.6415709299  TIP3      3835            0.0000000000
     25304      3935  TIP3      H1             -7.4893751886       12.1272228515      -24.1849942828  TIP3      3835            0.0000000000
     25305      3935  TIP3      H2             -7.9350314965       12.3293084269      -22.7566866460  TIP3      3835            0.0000000000
     25306      3936  TIP3      OH2            -2.7165774726       10.7475305557      -22.9486402125  TIP3      3836            0.0000000000
     25307      3936  TIP3      H1             -2.4740597312        9.8712703283      -23.2645918724  TIP3      3836            0.0000000000
     25308      3936  TIP3      H2             -3.0666226456       11.1697035665      -23.7481766083  TIP3      3836            0.0000000000
     25309      3937  TIP3      OH2            -3.1486637205       26.7826647324      -39.9315446650  TIP3      3837            0.0000000000
     25310      3937  TIP3      H1             -2.3852572702       27.3425294911      -39.7319896970  TIP3      3837            0.0000000000
     25311      3937  TIP3      H2             -3.2698743007       26.9456263651      -40.8995628330  TIP3      3837            0.0000000000
     25312      3938  TIP3      OH2            -9.6450504485       21.7765002404      -40.4508983128  TIP3      3838            0.0000000000
     25313      3938  TIP3      H1             -8.7112558202       22.0500508993      -40.3485267069  TIP3      3838            0.0000000000
     25314      3938  TIP3      H2             -9.6187778946       21.5591051644      -41.4098207947  TIP3      3838            0.0000000000
     25315      3939  TIP3      OH2           -10.3523103456       26.7610736866      -35.3581378393  TIP3      3839            0.0000000000
     25316      3939  TIP3      H1            -11.1162028618       26.2182405765      -35.6745309965  TIP3      3839            0.0000000000
     25317      3939  TIP3      H2            -10.1457015173       26.2526529715      -34.5490776790  TIP3      3839            0.0000000000
     25318      3940  TIP3      OH2            -9.7862473778       25.0826704108      -33.1637707407  TIP3      3840            0.0000000000
     25319      3940  TIP3      H1            -10.3348234122       24.3660805357      -32.8152793472  TIP3      3840            0.0000000000
     25320      3940  TIP3      H2             -9.4420187829       25.4678823783      -32.3273581100  TIP3      3840            0.0000000000
     25321      3941  TIP3      OH2             7.8805446550       26.1415494477      -30.1035844518  TIP3      3841            0.0000000000
     25322      3941  TIP3      H1              7.7815620966       25.7387121790      -29.2135385189  TIP3      3841            0.0000000000
     25323      3941  TIP3      H2              8.3774864653       26.9367350493      -29.8167297342  TIP3      3841            0.0000000000
     25324      3942  TIP3      OH2             7.2529097875       25.1346043398      -27.6897823086  TIP3      3842            0.0000000000
     25325      3942  TIP3      H1              6.8813875269       24.3688339050      -28.1859112573  TIP3      3842            0.0000000000
     25326      3942  TIP3      H2              7.5254061990       24.6517159836      -26.8794443133  TIP3      3842            0.0000000000
     25327      3943  TIP3      OH2             5.8311693082       21.3941956122      -22.9221698290  TIP3      3843            0.0000000000
     25328      3943  TIP3      H1              4.9427787414       21.4280928882      -22.5524009797  TIP3      3843            0.0000000000
     25329      3943  TIP3      H2              6.2155349714       22.2286256248      -22.5761956438  TIP3      3843            0.0000000000
     25330      3944  TIP3      OH2             6.6833800756       19.6197183163      -37.8621017436  TIP3      3844            0.0000000000
     25331      3944  TIP3      H1              7.6062623434       19.9059818180      -37.6799302326  TIP3      3844            0.0000000000
     25332      3944  TIP3      H2              6.5718958343       18.9681216064      -37.1306518602  TIP3      3844            0.0000000000
     25333      3945  TIP3      OH2             7.0885105092       17.7863971347      -35.6853815764  TIP3      3845            0.0000000000
     25334      3945  TIP3      H1              6.5059918101       17.0462971717      -35.3895972759  TIP3      3845            0.0000000000
     25335      3945  TIP3      H2              7.6195141148       17.8894999179      -34.8804637218  TIP3      3845            0.0000000000
     25336      3946  TIP3      OH2             6.9514820048       20.2220693268      -30.7480907541  TIP3      3846            0.0000000000
     25337      3946  TIP3      H1              7.6596149776       19.5682070029      -30.9547661648  TIP3      3846            0.0000000000
     25338      3946  TIP3      H2              7.3553440308       21.0574159287      -31.0424157727  TIP3      3846            0.0000000000
     25339      3947  TIP3      OH2             5.8776910450       23.0415515312      -28.6661205600  TIP3      3847            0.0000000000
     25340      3947  TIP3      H1              5.2013136445       23.5505818127      -28.1584808371  TIP3      3847            0.0000000000
     25341      3947  TIP3      H2              5.4399157627       22.9762984143      -29.5420651661  TIP3      3847            0.0000000000
     25342      3948  TIP3      OH2             7.7163371219       17.3264246813      -39.3163360713  TIP3      3848            0.0000000000
     25343      3948  TIP3      H1              6.8265873254       17.1940948827      -39.6733053425  TIP3      3848            0.0000000000
     25344      3948  TIP3      H2              7.6722724396       18.2672403519      -39.0782299323  TIP3      3848            0.0000000000
     25345      3949  TIP3      OH2             6.3111359920       14.6295782918      -40.6132280717  TIP3      3849            0.0000000000
     25346      3949  TIP3      H1              6.3076767232       15.1797935836      -41.4024761249  TIP3      3849            0.0000000000
     25347      3949  TIP3      H2              6.0763440146       13.7699163306      -41.0120301733  TIP3      3849            0.0000000000
     25348      3950  TIP3      OH2             5.6874727098       15.7740219441      -34.7619091701  TIP3      3850            0.0000000000
     25349      3950  TIP3      H1              5.1907839127       14.9835711269      -35.0085212524  TIP3      3850            0.0000000000
     25350      3950  TIP3      H2              5.2116864145       16.0185105555      -33.9312725289  TIP3      3850            0.0000000000
     25351      3951  TIP3      OH2            -9.9011809578       18.4674904733      -30.7918504344  TIP3      3851            0.0000000000
     25352      3951  TIP3      H1            -10.0326724845       18.0315112859      -31.6629489812  TIP3      3851            0.0000000000
     25353      3951  TIP3      H2             -9.0232573297       18.1115919882      -30.5216570037  TIP3      3851            0.0000000000
     25354      3952  TIP3      OH2             6.2678352225       18.1095203302      -25.1825846485  TIP3      3852            0.0000000000
     25355      3952  TIP3      H1              6.5792068231       17.1754732026      -25.2706555741  TIP3      3852            0.0000000000
     25356      3952  TIP3      H2              7.0552440364       18.6099797316      -25.4621944181  TIP3      3852            0.0000000000
     25357      3953  TIP3      OH2             7.0203643447       15.5513515908      -25.6134035325  TIP3      3853            0.0000000000
     25358      3953  TIP3      H1              6.2444107182       15.1651182816      -25.1458404800  TIP3      3853            0.0000000000
     25359      3953  TIP3      H2              7.7254478540       14.9782202907      -25.2527472319  TIP3      3853            0.0000000000
     25360      3954  TIP3      OH2             5.2038105636       12.2232790168      -41.5053867194  TIP3      3854            0.0000000000
     25361      3954  TIP3      H1              5.7564049440       11.7052877592      -40.8788430032  TIP3      3854            0.0000000000
     25362      3954  TIP3      H2              4.3041958520       12.0775255974      -41.1773424904  TIP3      3854            0.0000000000
     25363      3955  TIP3      OH2             4.1210485830       13.9274104465      -36.2824568561  TIP3      3855            0.0000000000
     25364      3955  TIP3      H1              4.2787174924       12.9575468494      -36.2486678556  TIP3      3855            0.0000000000
     25365      3955  TIP3      H2              5.0117881721       14.1870569964      -36.5734507787  TIP3      3855            0.0000000000
     25366      3956  TIP3      OH2             5.7962672267       14.6220609038      -31.3137753595  TIP3      3856            0.0000000000
     25367      3956  TIP3      H1              6.7720661321       14.6716800370      -31.1571287813  TIP3      3856            0.0000000000
     25368      3956  TIP3      H2              5.5312688666       14.6684324828      -30.3801915287  TIP3      3856            0.0000000000
     25369      3957  TIP3      OH2             5.6614074058       15.0066093850      -28.4165898247  TIP3      3857            0.0000000000
     25370      3957  TIP3      H1              4.7893961894       15.3563669721      -28.1790420016  TIP3      3857            0.0000000000
     25371      3957  TIP3      H2              6.2420679576       15.7912482979      -28.3398713475  TIP3      3857            0.0000000000
     25372      3958  TIP3      OH2           -10.3890653841       13.0796522265      -24.9343859725  TIP3      3858            0.0000000000
     25373      3958  TIP3      H1             -9.5530619536       13.1861306280      -24.4208604079  TIP3      3858            0.0000000000
     25374      3958  TIP3      H2            -10.9281992631       12.5444477988      -24.3317519993  TIP3      3858            0.0000000000
     25375      3959  TIP3      OH2             8.0501956465        8.8316369846      -22.5909319583  TIP3      3859            0.0000000000
     25376      3959  TIP3      H1              7.8361921456        8.1839699958      -23.2781086802  TIP3      3859            0.0000000000
     25377      3959  TIP3      H2              8.0065241100        9.6448551269      -23.1150827505  TIP3      3859            0.0000000000
     25378      3960  TIP3      OH2             4.8608087369       11.3364512308      -36.4512696096  TIP3      3860            0.0000000000
     25379      3960  TIP3      H1              5.3447844761       10.9919634356      -35.6837096585  TIP3      3860            0.0000000000
     25380      3960  TIP3      H2              4.5810814319       10.5141027282      -36.8886921039  TIP3      3860            0.0000000000
     25381      3961  TIP3      OH2            -8.9429398680       11.7473867376      -31.2956292985  TIP3      3861            0.0000000000
     25382      3961  TIP3      H1             -8.5291825649       10.8609418988      -31.4050313861  TIP3      3861            0.0000000000
     25383      3961  TIP3      H2             -8.1738123705       12.3382099290      -31.1990639841  TIP3      3861            0.0000000000
     25384      3962  TIP3      OH2           -10.4631602429       14.8590439723      -30.6495213140  TIP3      3862            0.0000000000
     25385      3962  TIP3      H1             -9.9332643675       14.6924308663      -31.4564131303  TIP3      3862            0.0000000000
     25386      3962  TIP3      H2             -9.8989244300       15.4817638021      -30.1705987520  TIP3      3862            0.0000000000
     25387      3963  TIP3      OH2             7.4842925439       10.8261944517      -24.4463307324  TIP3      3863            0.0000000000
     25388      3963  TIP3      H1              6.7417313124       10.9456214345      -23.8141546626  TIP3      3863            0.0000000000
     25389      3963  TIP3      H2              6.9871154704       10.6518093530      -25.2764107136  TIP3      3863            0.0000000000
     25390      3964  TIP3      OH2             7.1271311769       10.9971873483      -40.0219144057  TIP3      3864            0.0000000000
     25391      3964  TIP3      H1              7.5955596068       11.2103131506      -40.8699061609  TIP3      3864            0.0000000000
     25392      3964  TIP3      H2              7.7437905777       11.3651537005      -39.3747042541  TIP3      3864            0.0000000000
     25393      3965  TIP3      OH2           -10.3127842394       10.8949740674      -36.8566964049  TIP3      3865            0.0000000000
     25394      3965  TIP3      H1            -11.1984221345       11.1864315290      -36.6092008655  TIP3      3865            0.0000000000
     25395      3965  TIP3      H2            -10.1580907902       11.4260453437      -37.6680082022  TIP3      3865            0.0000000000
     25396      3966  TIP3      OH2             4.4440873834       25.7983034979      -34.4804718404  TIP3      3866            0.0000000000
     25397      3966  TIP3      H1              5.0843867976       26.1137677024      -35.1502749022  TIP3      3866            0.0000000000
     25398      3966  TIP3      H2              4.2029832882       26.6338739926      -34.0146622485  TIP3      3866            0.0000000000
     25399      3967  TIP3      OH2           -10.3636662766        9.6026666865      -28.4466059494  TIP3      3867            0.0000000000
     25400      3967  TIP3      H1            -11.1174874209        9.2860919051      -27.9133399003  TIP3      3867            0.0000000000
     25401      3967  TIP3      H2            -10.7635315446       10.3352498650      -28.9449501658  TIP3      3867            0.0000000000
     25402      3968  TIP3      OH2            -7.9550548771       22.5757412926      -24.3283500468  TIP3      3868            0.0000000000
     25403      3968  TIP3      H1             -8.4336172023       22.2152214618      -25.0959519136  TIP3      3868            0.0000000000
     25404      3968  TIP3      H2             -7.9210188836       21.8059375827      -23.7362407899  TIP3      3868            0.0000000000
     25405      3969  TIP3      OH2            -5.0507195007       24.2745620322      -27.6921932089  TIP3      3869            0.0000000000
     25406      3969  TIP3      H1             -5.2098212664       25.2161603828      -27.9346412400  TIP3      3869            0.0000000000
     25407      3969  TIP3      H2             -4.0685874703       24.2441212482      -27.7318805523  TIP3      3869            0.0000000000
     25408      3970  TIP3      OH2            -1.0419470720       25.5087871615      -24.7075793491  TIP3      3870            0.0000000000
     25409      3970  TIP3      H1             -0.7204814022       24.7888597688      -24.1441857060  TIP3      3870            0.0000000000
     25410      3970  TIP3      H2             -0.1993366958       25.7988730193      -25.1155512588  TIP3      3870            0.0000000000
     25411      3971  TIP3      OH2             1.2505649522       27.1295763532      -25.3371327384  TIP3      3871            0.0000000000
     25412      3971  TIP3      H1              1.8945609451       26.8717079079      -26.0165722503  TIP3      3871            0.0000000000
     25413      3971  TIP3      H2              1.6899148909       27.8744026739      -24.8896030697  TIP3      3871            0.0000000000
     25414      3972  TIP3      OH2             6.4087807289        9.0349115038      -26.5051614461  TIP3      3872            0.0000000000
     25415      3972  TIP3      H1              5.8080730235        9.4010761488      -27.1658808337  TIP3      3872            0.0000000000
     25416      3972  TIP3      H2              6.5384519631        8.1089692011      -26.8009617720  TIP3      3872            0.0000000000
     25417      3973  TIP3      OH2            -7.9850848110       27.1027409552      -27.8074220105  TIP3      3873            0.0000000000
     25418      3973  TIP3      H1             -8.8357200368       27.2725235686      -28.2742232505  TIP3      3873            0.0000000000
     25419      3973  TIP3      H2             -7.9596939575       27.8426155628      -27.1741996825  TIP3      3873            0.0000000000
     25420      3974  TIP3      OH2            -5.3469735108       26.7729642409      -28.7022490835  TIP3      3874            0.0000000000
     25421      3974  TIP3      H1             -6.2666217252       27.0314638030      -28.4558856264  TIP3      3874            0.0000000000
     25422      3974  TIP3      H2             -5.4497106790       26.6287010443      -29.6557869421  TIP3      3874            0.0000000000
     25423      3975  TIP3      OH2            -0.7102384109       26.6965166074      -29.5825051414  TIP3      3875            0.0000000000
     25424      3975  TIP3      H1             -1.6085931956       27.0062553772      -29.8144254597  TIP3      3875            0.0000000000
     25425      3975  TIP3      H2             -0.5860043122       27.1481733191      -28.7168878836  TIP3      3875            0.0000000000
     25426      3976  TIP3      OH2             1.0673026849       25.1458215323      -28.1762242845  TIP3      3876            0.0000000000
     25427      3976  TIP3      H1              0.4217697216       25.5063591658      -28.8110807299  TIP3      3876            0.0000000000
     25428      3976  TIP3      H2              1.8545530963       25.6646637846      -28.4453168158  TIP3      3876            0.0000000000
     25429      3977  TIP3      OH2             3.2647525798       26.6590105905      -28.7247307939  TIP3      3877            0.0000000000
     25430      3977  TIP3      H1              3.4636120665       27.6090928863      -28.6168161882  TIP3      3877            0.0000000000
     25431      3977  TIP3      H2              3.7872725468       26.5127180595      -29.5424668121  TIP3      3877            0.0000000000
     25432      3978  TIP3      OH2            -8.1126699328       25.4880346939      -31.0959738204  TIP3      3878            0.0000000000
     25433      3978  TIP3      H1             -8.3226784335       24.8156475179      -30.4170204226  TIP3      3878            0.0000000000
     25434      3978  TIP3      H2             -7.3001279054       25.1048034963      -31.4978218904  TIP3      3878            0.0000000000
     25435      3979  TIP3      OH2            -5.8503357414       24.5311923779      -32.3895520525  TIP3      3879            0.0000000000
     25436      3979  TIP3      H1             -6.0555603752       23.6132849785      -32.1311800684  TIP3      3879            0.0000000000
     25437      3979  TIP3      H2             -5.1054173998       24.7050090896      -31.7724161992  TIP3      3879            0.0000000000
     25438      3980  TIP3      OH2            -3.8221512980       24.5583727193      -30.7325298516  TIP3      3880            0.0000000000
     25439      3980  TIP3      H1             -3.4842372424       23.6974131209      -31.0442721185  TIP3      3880            0.0000000000
     25440      3980  TIP3      H2             -3.7257137892       24.4690219522      -29.7626981430  TIP3      3880            0.0000000000
     25441      3981  TIP3      OH2             0.0852884003       10.1334868714      -31.8518165012  TIP3      3881            0.0000000000
     25442      3981  TIP3      H1             -0.7051757612        9.8983238829      -31.3471503973  TIP3      3881            0.0000000000
     25443      3981  TIP3      H2             -0.2196367397       10.0042172277      -32.7618541797  TIP3      3881            0.0000000000
     25444      3982  TIP3      OH2             4.4873270039        8.9272717060      -32.2407523779  TIP3      3882            0.0000000000
     25445      3982  TIP3      H1              5.0455569171        9.4419979968      -32.8655911170  TIP3      3882            0.0000000000
     25446      3982  TIP3      H2              3.6225862321        8.9513845093      -32.7189986780  TIP3      3882            0.0000000000
     25447      3983  TIP3      OH2             6.1317542112       10.0380890447      -34.1010481316  TIP3      3883            0.0000000000
     25448      3983  TIP3      H1              6.8407903970        9.5706662531      -33.6062659951  TIP3      3883            0.0000000000
     25449      3983  TIP3      H2              6.6012824098       10.8946811612      -34.2007164976  TIP3      3883            0.0000000000
     25450      3984  TIP3      OH2            -7.7950667698        8.8707826820      -34.5548432575  TIP3      3884            0.0000000000
     25451      3984  TIP3      H1             -8.5676159393        8.7254762656      -35.1396710078  TIP3      3884            0.0000000000
     25452      3984  TIP3      H2             -7.4190622461        7.9556213315      -34.5186523378  TIP3      3884            0.0000000000
     25453      3985  TIP3      OH2            -9.1410808333        9.1789194199      -39.1111495856  TIP3      3885            0.0000000000
     25454      3985  TIP3      H1             -9.3033163294        9.9863214697      -39.6409865975  TIP3      3885            0.0000000000
     25455      3985  TIP3      H2             -9.8370131589        9.2911120212      -38.4367075884  TIP3      3885            0.0000000000
     25456      3986  TIP3      OH2            -3.6758363032        8.8470049413      -34.6827999264  TIP3      3886            0.0000000000
     25457      3986  TIP3      H1             -2.7230355012        8.6793512009      -34.7839467768  TIP3      3886            0.0000000000
     25458      3986  TIP3      H2             -3.7239649182        9.1870381800      -33.7723979596  TIP3      3886            0.0000000000
     25459      3987  TIP3      OH2             2.2418238714        9.2010400545      -33.7248396403  TIP3      3887            0.0000000000
     25460      3987  TIP3      H1              1.7669592941        9.3352817349      -34.5518796523  TIP3      3887            0.0000000000
     25461      3987  TIP3      H2              1.6937489584        8.5191075867      -33.2770555284  TIP3      3887            0.0000000000
     25462      3988  TIP3      OH2             3.8200679492        9.1086391021      -37.7368782123  TIP3      3888            0.0000000000
     25463      3988  TIP3      H1              3.1307532128        9.1593585676      -38.4179304599  TIP3      3888            0.0000000000
     25464      3988  TIP3      H2              3.4392587650        8.4190326414      -37.1608727853  TIP3      3888            0.0000000000
     25465      3989  TIP3      OH2            -9.5135540833       24.7810747451      -38.1115714151  TIP3      3889            0.0000000000
     25466      3989  TIP3      H1            -10.2724417812       25.1078142580      -38.6459942222  TIP3      3889            0.0000000000
     25467      3989  TIP3      H2             -9.0204965627       25.6066636722      -38.0386918076  TIP3      3889            0.0000000000
     25468      3990  TIP3      OH2            -7.6669506735       11.3443586535      -40.2801336762  TIP3      3890            0.0000000000
     25469      3990  TIP3      H1             -7.5783226492       11.0341187653      -41.2084073343  TIP3      3890            0.0000000000
     25470      3990  TIP3      H2             -7.3525948476       12.2653655215      -40.3469435137  TIP3      3890            0.0000000000
     25471      3991  TIP3      OH2            -2.1560706606       11.4641495762      -37.9065685202  TIP3      3891            0.0000000000
     25472      3991  TIP3      H1             -1.5567679051       10.9387105746      -37.3592349655  TIP3      3891            0.0000000000
     25473      3991  TIP3      H2             -2.0298830617       12.3613467875      -37.5471836586  TIP3      3891            0.0000000000
     25474      3992  TIP3      OH2            -0.3571157822       27.0679741742      -39.6566798468  TIP3      3892            0.0000000000
     25475      3992  TIP3      H1              0.6150724758       26.9567665919      -39.7244487465  TIP3      3892            0.0000000000
     25476      3992  TIP3      H2             -0.6297917246       26.2191595746      -40.0374491869  TIP3      3892            0.0000000000
     25477      3993  TIP3      OH2             6.1807321334       25.6577622124      -36.5068731272  TIP3      3893            0.0000000000
     25478      3993  TIP3      H1              6.0166959486       24.8253223109      -37.0108137770  TIP3      3893            0.0000000000
     25479      3993  TIP3      H2              5.9965740380       26.3309296550      -37.2047128843  TIP3      3893            0.0000000000
     25480      3994  TIP3      OH2            -8.0494519770        9.6201722908      -24.4933320728  TIP3      3894            0.0000000000
     25481      3994  TIP3      H1             -8.7663147413        9.0114225287      -24.7417993035  TIP3      3894            0.0000000000
     25482      3994  TIP3      H2             -7.2975064632        9.1474354653      -24.8707445088  TIP3      3894            0.0000000000
     25483      3995  TIP3      OH2            -7.6514971250       26.6029022443      -40.7112033761  TIP3      3895            0.0000000000
     25484      3995  TIP3      H1             -8.1736621628       27.2150445407      -40.1575782513  TIP3      3895            0.0000000000
     25485      3995  TIP3      H2             -7.2177032496       26.0794387154      -40.0306795700  TIP3      3895            0.0000000000
     25486      3996  TIP3      OH2             2.1748175653        8.5747650409      -23.1430513557  TIP3      3896            0.0000000000
     25487      3996  TIP3      H1              2.4436015107        8.7758886103      -22.2047138566  TIP3      3896            0.0000000000
     25488      3996  TIP3      H2              3.0236263664        8.2154427481      -23.4733436749  TIP3      3896            0.0000000000
     25489      3997  TIP3      OH2             5.4647689468       24.6425575271      -24.9085388927  TIP3      3897            0.0000000000
     25490      3997  TIP3      H1              5.0620636228       24.4381822784      -25.7854456945  TIP3      3897            0.0000000000
     25491      3997  TIP3      H2              5.3631302279       25.6086603026      -24.9324153192  TIP3      3897            0.0000000000
     25492      3998  TIP3      OH2            20.4024669372       18.5284705998      -34.7171059011  TIP3      3898            0.0000000000
     25493      3998  TIP3      H1             20.4405365182       19.3786176132      -34.2408087201  TIP3      3898            0.0000000000
     25494      3998  TIP3      H2             19.5202322153       18.5805535119      -35.1187065595  TIP3      3898            0.0000000000
     25495      3999  TIP3      OH2            19.0423741636       17.2660949114      -31.5037498418  TIP3      3899            0.0000000000
     25496      3999  TIP3      H1             19.0511667886       16.9477268107      -30.5722704981  TIP3      3899            0.0000000000
     25497      3999  TIP3      H2             18.2787513309       16.8072111804      -31.8947261097  TIP3      3899            0.0000000000
     25498      4000  TIP3      OH2            11.0893315917       17.1664978868      -29.7653960027  TIP3      3900            0.0000000000
     25499      4000  TIP3      H1             11.0940694500       16.4799180164      -29.0771609056  TIP3      3900            0.0000000000
     25500      4000  TIP3      H2             12.0552322612       17.2339118309      -29.9474351661  TIP3      3900            0.0000000000
     25501      4001  TIP3      OH2            22.1954994521       20.4034373233      -32.6670356748  TIP3      3901            0.0000000000
     25502      4001  TIP3      H1             22.0269372204       19.6505255558      -32.0697477070  TIP3      3901            0.0000000000
     25503      4001  TIP3      H2             22.1945374976       21.1358739350      -32.0270949261  TIP3      3901            0.0000000000
     25504      4002  TIP3      OH2            12.5958433275       21.8100077956      -31.0607424507  TIP3      3902            0.0000000000
     25505      4002  TIP3      H1             12.1496519321       21.0614395711      -31.5101362431  TIP3      3902            0.0000000000
     25506      4002  TIP3      H2             13.5319361412       21.6004263824      -31.2540594517  TIP3      3902            0.0000000000
     25507      4003  TIP3      OH2             9.1014559104       14.9585040143      -35.7033345794  TIP3      3903            0.0000000000
     25508      4003  TIP3      H1              8.7722736766       15.8764609884      -35.7200952811  TIP3      3903            0.0000000000
     25509      4003  TIP3      H2              8.2687876880       14.4544777061      -35.6738858658  TIP3      3903            0.0000000000
     25510      4004  TIP3      OH2             9.3855736207       17.6154094292      -33.2622347827  TIP3      3904            0.0000000000
     25511      4004  TIP3      H1              9.6996429875       16.6828415513      -33.1739969047  TIP3      3904            0.0000000000
     25512      4004  TIP3      H2             10.2084322410       18.1298717210      -33.3553020680  TIP3      3904            0.0000000000
     25513      4005  TIP3      OH2            19.8313038567       25.8809526739      -32.9834519046  TIP3      3905            0.0000000000
     25514      4005  TIP3      H1             20.5238004589       25.3078277965      -33.3874910165  TIP3      3905            0.0000000000
     25515      4005  TIP3      H2             19.6465655770       25.3464353769      -32.2033293550  TIP3      3905            0.0000000000
     25516      4006  TIP3      OH2            16.9617800381       20.1289660513      -30.5750348872  TIP3      3906            0.0000000000
     25517      4006  TIP3      H1             17.3388251656       19.8010375691      -31.4071269005  TIP3      3906            0.0000000000
     25518      4006  TIP3      H2             17.7899295163       20.2993160426      -30.0745655380  TIP3      3906            0.0000000000
     25519      4007  TIP3      OH2            25.2696870701       11.8205889330      -30.3979828693  TIP3      3907            0.0000000000
     25520      4007  TIP3      H1             25.5863345096       12.4491967694      -29.7056870438  TIP3      3907            0.0000000000
     25521      4007  TIP3      H2             26.1047044698       11.6461180723      -30.8624844828  TIP3      3907            0.0000000000
     25522      4008  TIP3      OH2            20.8282156951       14.5963888308      -30.2027039630  TIP3      3908            0.0000000000
     25523      4008  TIP3      H1             21.2125436893       13.7340827882      -29.9828158851  TIP3      3908            0.0000000000
     25524      4008  TIP3      H2             20.6526808466       14.4411432105      -31.1555426066  TIP3      3908            0.0000000000
     25525      4009  TIP3      OH2            13.9416694945       12.1975475302      -33.4674371500  TIP3      3909            0.0000000000
     25526      4009  TIP3      H1             14.0583813652       13.0881795271      -33.8714694824  TIP3      3909            0.0000000000
     25527      4009  TIP3      H2             13.4301025937       11.7459459851      -34.1706514205  TIP3      3909            0.0000000000
     25528      4010  TIP3      OH2            20.9919368159       12.5565630107      -34.7288557031  TIP3      3910            0.0000000000
     25529      4010  TIP3      H1             21.5012369630       12.2148884866      -33.9629132743  TIP3      3910            0.0000000000
     25530      4010  TIP3      H2             21.4992637708       13.3603401165      -34.9123450847  TIP3      3910            0.0000000000
     25531      4011  TIP3      OH2            10.2237453107       15.0525185623      -32.6562213506  TIP3      3911            0.0000000000
     25532      4011  TIP3      H1             10.8300664174       14.6370933226      -32.0176185660  TIP3      3911            0.0000000000
     25533      4011  TIP3      H2             10.4774417221       14.5816657097      -33.4663825415  TIP3      3911            0.0000000000
     25534      4012  TIP3      OH2            15.0001821092       16.6725330160      -32.8951136137  TIP3      3912            0.0000000000
     25535      4012  TIP3      H1             15.8521904183       16.2549475077      -32.6275930901  TIP3      3912            0.0000000000
     25536      4012  TIP3      H2             14.5929696745       15.8937886634      -33.3333990862  TIP3      3912            0.0000000000
     25537      4013  TIP3      OH2            26.1066240662       13.0939224044      -28.1478336024  TIP3      3913            0.0000000000
     25538      4013  TIP3      H1             25.7413209506       13.9967624469      -28.2905268692  TIP3      3913            0.0000000000
     25539      4013  TIP3      H2             26.4682914147       13.1972011707      -27.2565734459  TIP3      3913            0.0000000000
     25540      4014  TIP3      OH2            12.8662595263       11.5078430144      -29.3102670240  TIP3      3914            0.0000000000
     25541      4014  TIP3      H1             12.3053618170       11.8499619052      -30.0349760931  TIP3      3914            0.0000000000
     25542      4014  TIP3      H2             12.2420606385       11.5489021101      -28.5586154012  TIP3      3914            0.0000000000
     25543      4015  TIP3      OH2            19.6296207582       21.2164769328      -35.6444225302  TIP3      3915            0.0000000000
     25544      4015  TIP3      H1             19.6149385822       21.1283792836      -36.6203927103  TIP3      3915            0.0000000000
     25545      4015  TIP3      H2             19.1739874443       22.0792855477      -35.5600642797  TIP3      3915            0.0000000000
     25546      4016  TIP3      OH2            14.6864843271       19.4094295086      -29.3865069820  TIP3      3916            0.0000000000
     25547      4016  TIP3      H1             14.1950638325       20.1610483316      -28.9870544083  TIP3      3916            0.0000000000
     25548      4016  TIP3      H2             15.4484495767       19.8605859570      -29.8193900709  TIP3      3916            0.0000000000
     25549      4017  TIP3      OH2            22.7291768354       12.5631605262      -32.5729049043  TIP3      3917            0.0000000000
     25550      4017  TIP3      H1             23.3644751305       11.8575385420      -32.3778688759  TIP3      3917            0.0000000000
     25551      4017  TIP3      H2             22.9484676138       13.1952481914      -31.8421832210  TIP3      3917            0.0000000000
     25552      4018  TIP3      OH2            12.2563541371       13.4097642904      -31.3539336348  TIP3      3918            0.0000000000
     25553      4018  TIP3      H1             12.8995073590       13.9963320985      -30.8795132979  TIP3      3918            0.0000000000
     25554      4018  TIP3      H2             12.7930103348       13.0956143541      -32.1092090151  TIP3      3918            0.0000000000
     25555      4019  TIP3      OH2            13.4790886150       21.4671114033      -28.1176014211  TIP3      3919            0.0000000000
     25556      4019  TIP3      H1             13.3083776291       22.3348532817      -28.5201194138  TIP3      3919            0.0000000000
     25557      4019  TIP3      H2             12.5825849124       21.2579876624      -27.7678333660  TIP3      3919            0.0000000000
     25558      4020  TIP3      OH2             9.3062774604       20.6193628803      -37.4542137117  TIP3      3920            0.0000000000
     25559      4020  TIP3      H1              9.3312308422       21.0215804578      -38.3539233071  TIP3      3920            0.0000000000
     25560      4020  TIP3      H2              9.3699027068       21.3936484856      -36.8660823121  TIP3      3920            0.0000000000
     25561      4021  TIP3      OH2            22.7339531793       22.1849950961      -30.5875543876  TIP3      3921            0.0000000000
     25562      4021  TIP3      H1             21.8281196091       22.4740910627      -30.3192283265  TIP3      3921            0.0000000000
     25563      4021  TIP3      H2             22.9303321076       22.8678044890      -31.2476116830  TIP3      3921            0.0000000000
     25564      4022  TIP3      OH2            23.7946180472       10.0848446272      -28.8676249954  TIP3      3922            0.0000000000
     25565      4022  TIP3      H1             22.9871043735       10.5858442235      -29.0626342918  TIP3      3922            0.0000000000
     25566      4022  TIP3      H2             24.3477869020       10.3924030035      -29.6194241329  TIP3      3922            0.0000000000
     25567      4023  TIP3      OH2            16.4303001850        9.0296598874      -31.8681036230  TIP3      3923            0.0000000000
     25568      4023  TIP3      H1             15.9622500353        8.1989710238      -32.0314979013  TIP3      3923            0.0000000000
     25569      4023  TIP3      H2             15.7182610048        9.5272919978      -31.3904119103  TIP3      3923            0.0000000000
     25570      4024  TIP3      OH2            21.6766172267       24.1783893427      -33.9587372201  TIP3      3924            0.0000000000
     25571      4024  TIP3      H1             21.7948699290       23.3973734519      -34.5495604935  TIP3      3924            0.0000000000
     25572      4024  TIP3      H2             22.4153396670       24.7476195208      -34.2982127315  TIP3      3924            0.0000000000
     25573      4025  TIP3      OH2            22.6568134528       22.1596883324      -35.3717184491  TIP3      3925            0.0000000000
     25574      4025  TIP3      H1             22.3605544028       21.6355067474      -36.1414668127  TIP3      3925            0.0000000000
     25575      4025  TIP3      H2             22.5911584251       21.4791395957      -34.6707196177  TIP3      3925            0.0000000000
     25576      4026  TIP3      OH2            24.0557089782       20.9915131050      -26.8838136124  TIP3      3926            0.0000000000
     25577      4026  TIP3      H1             24.2127075130       20.2324297899      -27.4832204229  TIP3      3926            0.0000000000
     25578      4026  TIP3      H2             24.1804651349       21.7497071520      -27.4913759682  TIP3      3926            0.0000000000
     25579      4027  TIP3      OH2            18.5884649746       17.5704965451      -37.4804280086  TIP3      3927            0.0000000000
     25580      4027  TIP3      H1             18.1431415522       18.4502948301      -37.4450077355  TIP3      3927            0.0000000000
     25581      4027  TIP3      H2             19.3243629202       17.7342745820      -38.0964837602  TIP3      3927            0.0000000000
     25582      4028  TIP3      OH2            19.0122457777       16.5568436419      -40.2036281794  TIP3      3928            0.0000000000
     25583      4028  TIP3      H1             19.8450878448       16.6424373285      -39.7028247807  TIP3      3928            0.0000000000
     25584      4028  TIP3      H2             18.8918542609       15.5971333040      -40.2741954047  TIP3      3928            0.0000000000
     25585      4029  TIP3      OH2            26.0318469496       17.3375249602      -29.0287547418  TIP3      3929            0.0000000000
     25586      4029  TIP3      H1             25.4204201820       18.0891841047      -29.1669974108  TIP3      3929            0.0000000000
     25587      4029  TIP3      H2             26.6644891051       17.4832349770      -29.7614147698  TIP3      3929            0.0000000000
     25588      4030  TIP3      OH2            22.6337511144       17.9645006882      -36.1080188495  TIP3      3930            0.0000000000
     25589      4030  TIP3      H1             21.8196762363       18.1179117970      -35.5612184048  TIP3      3930            0.0000000000
     25590      4030  TIP3      H2             23.2226939469       17.5766317981      -35.4298585285  TIP3      3930            0.0000000000
     25591      4031  TIP3      OH2            22.0282786540       15.9527317251      -26.9142077872  TIP3      3931            0.0000000000
     25592      4031  TIP3      H1             22.1727509833       16.8096084307      -26.4636233426  TIP3      3931            0.0000000000
     25593      4031  TIP3      H2             21.2545846174       16.1754278940      -27.4631904206  TIP3      3931            0.0000000000
     25594      4032  TIP3      OH2            13.6848476302       18.3438906596      -34.5372081106  TIP3      3932            0.0000000000
     25595      4032  TIP3      H1             13.5500166468       17.8851707775      -35.3997907990  TIP3      3932            0.0000000000
     25596      4032  TIP3      H2             14.2189286102       17.7028317437      -34.0260396233  TIP3      3932            0.0000000000
     25597      4033  TIP3      OH2            15.2665935236       21.9746399202      -31.6788320386  TIP3      3933            0.0000000000
     25598      4033  TIP3      H1             15.4427956931       21.8068103834      -32.6155745261  TIP3      3933            0.0000000000
     25599      4033  TIP3      H2             15.8220224543       21.3067200406      -31.2301297472  TIP3      3933            0.0000000000
     25600      4034  TIP3      OH2            13.6509128654       17.2564717959      -30.6057149056  TIP3      3934            0.0000000000
     25601      4034  TIP3      H1             14.1029027992       17.2470059428      -31.4798060487  TIP3      3934            0.0000000000
     25602      4034  TIP3      H2             14.1348710993       17.9739620394      -30.1343433114  TIP3      3934            0.0000000000
     25603      4035  TIP3      OH2            20.3091660660       22.9007630708      -29.9237307376  TIP3      3935            0.0000000000
     25604      4035  TIP3      H1             20.1129433676       23.5146213856      -29.1913519932  TIP3      3935            0.0000000000
     25605      4035  TIP3      H2             20.0509499645       22.0367570333      -29.5511112978  TIP3      3935            0.0000000000
     25606      4036  TIP3      OH2            15.2251140553       21.6794250558      -25.8893569022  TIP3      3936            0.0000000000
     25607      4036  TIP3      H1             14.4955085654       22.1693657660      -25.4454311926  TIP3      3936            0.0000000000
     25608      4036  TIP3      H2             14.8098901216       21.5597624679      -26.7675710395  TIP3      3936            0.0000000000
     25609      4037  TIP3      OH2            21.2901963333       17.3467299039      -38.4056908061  TIP3      3937            0.0000000000
     25610      4037  TIP3      H1             21.7654659218       17.5983739718      -37.5805609153  TIP3      3937            0.0000000000
     25611      4037  TIP3      H2             21.8389356113       17.8115135974      -39.0764113507  TIP3      3937            0.0000000000
     25612      4038  TIP3      OH2            12.0409665526       17.4514952446      -26.8867371206  TIP3      3938            0.0000000000
     25613      4038  TIP3      H1             12.1850077956       18.2615525920      -26.3679647637  TIP3      3938            0.0000000000
     25614      4038  TIP3      H2             11.0743447833       17.3674913028      -26.7933493235  TIP3      3938            0.0000000000
     25615      4039  TIP3      OH2            18.5094266871       23.8776737327      -35.5189554299  TIP3      3939            0.0000000000
     25616      4039  TIP3      H1             18.8146412156       24.3476273104      -34.7368809225  TIP3      3939            0.0000000000
     25617      4039  TIP3      H2             18.0919319852       24.6009415105      -36.0091581331  TIP3      3939            0.0000000000
     25618      4040  TIP3      OH2            13.3497762326       23.5044147761      -25.2111597434  TIP3      3940            0.0000000000
     25619      4040  TIP3      H1             13.0905756546       23.7712801683      -26.1166045576  TIP3      3940            0.0000000000
     25620      4040  TIP3      H2             12.5071788983       23.1721964211      -24.8376904724  TIP3      3940            0.0000000000
     25621      4041  TIP3      OH2            25.1085391680        8.7889755324      -38.2799520458  TIP3      3941            0.0000000000
     25622      4041  TIP3      H1             24.1662363571        8.8723063527      -37.9960093457  TIP3      3941            0.0000000000
     25623      4041  TIP3      H2             25.2501303909        9.6211533023      -38.7830310957  TIP3      3941            0.0000000000
     25624      4042  TIP3      OH2            12.6951095406       17.1478083389      -36.8679012709  TIP3      3942            0.0000000000
     25625      4042  TIP3      H1             12.3079369703       17.9464997955      -37.2936216933  TIP3      3942            0.0000000000
     25626      4042  TIP3      H2             12.0569076588       16.4435600005      -37.0333927132  TIP3      3942            0.0000000000
     25627      4043  TIP3      OH2            25.6881577692       23.0999364887      -40.3982919213  TIP3      3943            0.0000000000
     25628      4043  TIP3      H1             26.1302999464       23.8351186204      -40.8306654428  TIP3      3943            0.0000000000
     25629      4043  TIP3      H2             26.4222664958       22.4510432191      -40.3670397563  TIP3      3943            0.0000000000
     25630      4044  TIP3      OH2             8.9280685054       20.0166146376      -27.9251474144  TIP3      3944            0.0000000000
     25631      4044  TIP3      H1              8.4722535467       20.0007147809      -28.7769860006  TIP3      3944            0.0000000000
     25632      4044  TIP3      H2              9.4068040122       19.1589834180      -27.9760740025  TIP3      3944            0.0000000000
     25633      4045  TIP3      OH2             8.5701383299       22.6936529665      -31.1023011537  TIP3      3945            0.0000000000
     25634      4045  TIP3      H1              9.2781756017       22.1432759918      -30.7419314754  TIP3      3945            0.0000000000
     25635      4045  TIP3      H2              8.6110723149       23.4147714581      -30.4634026730  TIP3      3945            0.0000000000
     25636      4046  TIP3      OH2            26.6344472192       23.6332444138      -25.5223956063  TIP3      3946            0.0000000000
     25637      4046  TIP3      H1             26.7321605777       22.7320191614      -25.1634474300  TIP3      3946            0.0000000000
     25638      4046  TIP3      H2             25.7813961678       23.9177681246      -25.1017459218  TIP3      3946            0.0000000000
     25639      4047  TIP3      OH2            17.5587132042       23.0778061726      -26.4563387046  TIP3      3947            0.0000000000
     25640      4047  TIP3      H1             17.6398125763       23.8586310069      -25.8595604540  TIP3      3947            0.0000000000
     25641      4047  TIP3      H2             16.6855698811       22.7109665389      -26.2004899356  TIP3      3947            0.0000000000
     25642      4048  TIP3      OH2            18.2730499152       26.7122520608      -36.7093185297  TIP3      3948            0.0000000000
     25643      4048  TIP3      H1             18.2187279845       26.8881021669      -37.6728921977  TIP3      3948            0.0000000000
     25644      4048  TIP3      H2             18.2837013316       27.6317191968      -36.3567246189  TIP3      3948            0.0000000000
     25645      4049  TIP3      OH2            11.8346054421       25.2780083551      -34.6420728623  TIP3      3949            0.0000000000
     25646      4049  TIP3      H1             12.2301879266       24.9131179512      -33.8221642857  TIP3      3949            0.0000000000
     25647      4049  TIP3      H2             10.9624760451       24.8205526766      -34.6210145369  TIP3      3949            0.0000000000
     25648      4050  TIP3      OH2            20.9999455988       25.7709563338      -39.7069822468  TIP3      3950            0.0000000000
     25649      4050  TIP3      H1             21.5836789481       25.1778133088      -40.2473837408  TIP3      3950            0.0000000000
     25650      4050  TIP3      H2             21.2940602915       25.5364586935      -38.8043209260  TIP3      3950            0.0000000000
     25651      4051  TIP3      OH2            20.8906745297       25.8136915684      -36.9582415239  TIP3      3951            0.0000000000
     25652      4051  TIP3      H1             19.9590159072       26.0603703469      -36.8025888024  TIP3      3951            0.0000000000
     25653      4051  TIP3      H2             20.9201089917       24.9706602957      -36.4752214433  TIP3      3951            0.0000000000
     25654      4052  TIP3      OH2            23.9683426299       14.7555672874      -25.1052004781  TIP3      3952            0.0000000000
     25655      4052  TIP3      H1             23.5178205063       15.1026872233      -25.8924355146  TIP3      3952            0.0000000000
     25656      4052  TIP3      H2             24.2696684958       13.8818332236      -25.4290446999  TIP3      3952            0.0000000000
     25657      4053  TIP3      OH2            11.2088439576       21.0927421698      -26.7159055918  TIP3      3953            0.0000000000
     25658      4053  TIP3      H1             11.2472220056       20.6306585423      -25.8485650587  TIP3      3953            0.0000000000
     25659      4053  TIP3      H2             10.3336282941       20.8173981698      -27.0621386304  TIP3      3953            0.0000000000
     25660      4054  TIP3      OH2            14.1827848962        9.8621509017      -30.8990113532  TIP3      3954            0.0000000000
     25661      4054  TIP3      H1             13.3721130388        9.7449478095      -31.4322784930  TIP3      3954            0.0000000000
     25662      4054  TIP3      H2             13.8337841583       10.4409558476      -30.1937298951  TIP3      3954            0.0000000000
     25663      4055  TIP3      OH2            18.8540578697        9.6221824223      -27.6242854719  TIP3      3955            0.0000000000
     25664      4055  TIP3      H1             19.2472493829        9.0354868414      -26.9439034568  TIP3      3955            0.0000000000
     25665      4055  TIP3      H2             17.8921495842        9.5807616585      -27.4242838499  TIP3      3955            0.0000000000
     25666      4056  TIP3      OH2            21.3981396115       13.3608724455      -26.6932124597  TIP3      3956            0.0000000000
     25667      4056  TIP3      H1             20.9574649384       13.0467643465      -25.8642629676  TIP3      3956            0.0000000000
     25668      4056  TIP3      H2             21.6431865540       14.2940164756      -26.5011300417  TIP3      3956            0.0000000000
     25669      4057  TIP3      OH2            22.8186546541       18.1883351943      -40.5093400831  TIP3      3957            0.0000000000
     25670      4057  TIP3      H1             22.4668972369       17.8220977647      -41.3345842867  TIP3      3957            0.0000000000
     25671      4057  TIP3      H2             23.6069159397       18.6581649305      -40.8513010703  TIP3      3957            0.0000000000
     25672      4058  TIP3      OH2            18.1696378952       12.1577308277      -40.4400611807  TIP3      3958            0.0000000000
     25673      4058  TIP3      H1             17.2428819035       12.0231053027      -40.1893150963  TIP3      3958            0.0000000000
     25674      4058  TIP3      H2             18.4410249122       11.2641037587      -40.7021547155  TIP3      3958            0.0000000000
     25675      4059  TIP3      OH2            13.9625165549       14.6553885771      -29.7112030825  TIP3      3959            0.0000000000
     25676      4059  TIP3      H1             13.1374731437       14.5782722702      -29.1742734294  TIP3      3959            0.0000000000
     25677      4059  TIP3      H2             13.9192186418       15.5905941282      -29.9755085587  TIP3      3959            0.0000000000
     25678      4060  TIP3      OH2            14.0709569663       14.6516969621      -34.4822604263  TIP3      3960            0.0000000000
     25679      4060  TIP3      H1             13.1725219752       14.6411504011      -34.9014110903  TIP3      3960            0.0000000000
     25680      4060  TIP3      H2             14.5976026162       14.5124968400      -35.2841819602  TIP3      3960            0.0000000000
     25681      4061  TIP3      OH2            19.6502432916       15.6350331638      -35.8930005068  TIP3      3961            0.0000000000
     25682      4061  TIP3      H1             19.2593711432       16.3377764134      -36.4732522100  TIP3      3961            0.0000000000
     25683      4061  TIP3      H2             20.2077075902       15.1656272888      -36.5349290632  TIP3      3961            0.0000000000
     25684      4062  TIP3      OH2            18.3254070531       15.7458408130      -24.8715335720  TIP3      3962            0.0000000000
     25685      4062  TIP3      H1             17.8270501601       14.9463574475      -24.5618722192  TIP3      3962            0.0000000000
     25686      4062  TIP3      H2             19.2091346292       15.4010204267      -25.0470665742  TIP3      3962            0.0000000000
     25687      4063  TIP3      OH2            20.2050195340       15.0870379062      -32.9564644695  TIP3      3963            0.0000000000
     25688      4063  TIP3      H1             20.0737888626       15.8856941510      -33.5051885114  TIP3      3963            0.0000000000
     25689      4063  TIP3      H2             20.2375663320       14.4028239374      -33.6368146263  TIP3      3963            0.0000000000
     25690      4064  TIP3      OH2            11.5055574377       14.6755596660      -28.4808486461  TIP3      3964            0.0000000000
     25691      4064  TIP3      H1             11.6921635131       15.0808134961      -27.6229917330  TIP3      3964            0.0000000000
     25692      4064  TIP3      H2             11.1309631270       13.8148210324      -28.2262254756  TIP3      3964            0.0000000000
     25693      4065  TIP3      OH2            14.6150032141       12.5741998066      -41.0679298964  TIP3      3965            0.0000000000
     25694      4065  TIP3      H1             14.2446562156       11.9663178358      -40.3931648635  TIP3      3965            0.0000000000
     25695      4065  TIP3      H2             14.0806218108       13.3675649606      -40.9150175206  TIP3      3965            0.0000000000
     25696      4066  TIP3      OH2             7.9560986145       11.9792600853      -34.2120187451  TIP3      3966            0.0000000000
     25697      4066  TIP3      H1              8.3743723200       11.4501824075      -33.5110034692  TIP3      3966            0.0000000000
     25698      4066  TIP3      H2              8.2703491185       11.4950532800      -35.0002479383  TIP3      3966            0.0000000000
     25699      4067  TIP3      OH2             9.1214727666       12.6302283561      -38.5787928812  TIP3      3967            0.0000000000
     25700      4067  TIP3      H1              9.6913793189       13.0181965256      -39.2683869680  TIP3      3967            0.0000000000
     25701      4067  TIP3      H2              8.5836079791       13.3974276782      -38.3317128915  TIP3      3967            0.0000000000
     25702      4068  TIP3      OH2            19.5424654151       16.5452017176      -28.9403996297  TIP3      3968            0.0000000000
     25703      4068  TIP3      H1             20.1277934678       15.8479872693      -29.3209963862  TIP3      3968            0.0000000000
     25704      4068  TIP3      H2             18.9122558855       16.0019056163      -28.4166058467  TIP3      3968            0.0000000000
     25705      4069  TIP3      OH2            16.8961152240       12.1118907422      -33.7148128095  TIP3      3969            0.0000000000
     25706      4069  TIP3      H1             15.9835571929       11.9559634827      -33.4226015562  TIP3      3969            0.0000000000
     25707      4069  TIP3      H2             17.4371912887       11.7372223340      -32.9856805353  TIP3      3969            0.0000000000
     25708      4070  TIP3      OH2            11.5789987081       14.1830234061      -35.1930631997  TIP3      3970            0.0000000000
     25709      4070  TIP3      H1             10.7423088724       14.5765136330      -35.5231087866  TIP3      3970            0.0000000000
     25710      4070  TIP3      H2             11.5417597640       13.2816829310      -35.5561269077  TIP3      3970            0.0000000000
     25711      4071  TIP3      OH2            14.8034912578       14.1242536450      -37.3686891302  TIP3      3971            0.0000000000
     25712      4071  TIP3      H1             15.7228695489       14.4288497185      -37.2613067069  TIP3      3971            0.0000000000
     25713      4071  TIP3      H2             14.4051495117       14.7652607392      -37.9730636618  TIP3      3971            0.0000000000
     25714      4072  TIP3      OH2            20.6935245970       11.6406708345      -30.5036491943  TIP3      3972            0.0000000000
     25715      4072  TIP3      H1             20.0483386954       11.7458614905      -29.7941280530  TIP3      3972            0.0000000000
     25716      4072  TIP3      H2             20.1869886676       11.1080802426      -31.1474537900  TIP3      3972            0.0000000000
     25717      4073  TIP3      OH2            13.4627310092       15.8627290365      -40.2073496041  TIP3      3973            0.0000000000
     25718      4073  TIP3      H1             12.7720846522       15.7630439781      -40.8840541430  TIP3      3973            0.0000000000
     25719      4073  TIP3      H2             14.2519716379       15.9526495837      -40.7623199834  TIP3      3973            0.0000000000
     25720      4074  TIP3      OH2            23.9062855053       27.3402972327      -24.4281962566  TIP3      3974            0.0000000000
     25721      4074  TIP3      H1             24.2643764499       27.2917110788      -25.3447408451  TIP3      3974            0.0000000000
     25722      4074  TIP3      H2             24.6952382653       27.6325588672      -23.9462611941  TIP3      3974            0.0000000000
     25723      4075  TIP3      OH2            11.4877964549       19.4169439069      -24.5717545094  TIP3      3975            0.0000000000
     25724      4075  TIP3      H1             12.1433230559       19.8833355610      -24.0276857825  TIP3      3975            0.0000000000
     25725      4075  TIP3      H2             10.6790481872       19.5957389339      -24.0439111632  TIP3      3975            0.0000000000
     25726      4076  TIP3      OH2            17.1809684371       15.2488263482      -32.2145732121  TIP3      3976            0.0000000000
     25727      4076  TIP3      H1             18.0919694412       14.9208221301      -32.3425710894  TIP3      3976            0.0000000000
     25728      4076  TIP3      H2             16.8082672028       14.6150409553      -31.5821289928  TIP3      3976            0.0000000000
     25729      4077  TIP3      OH2            12.7025268675       11.2631531707      -35.6898782486  TIP3      3977            0.0000000000
     25730      4077  TIP3      H1             12.1079494499       10.6298121611      -35.2228481661  TIP3      3977            0.0000000000
     25731      4077  TIP3      H2             13.1963323934       10.6119683752      -36.2007429022  TIP3      3977            0.0000000000
     25732      4078  TIP3      OH2            16.3924570820       13.4395160958      -29.3679871980  TIP3      3978            0.0000000000
     25733      4078  TIP3      H1             15.5684103145       13.9586594746      -29.4834571611  TIP3      3978            0.0000000000
     25734      4078  TIP3      H2             17.0155473567       14.1147682415      -29.0516412064  TIP3      3978            0.0000000000
     25735      4079  TIP3      OH2            17.0699818072       19.7644123037      -37.5037159613  TIP3      3979            0.0000000000
     25736      4079  TIP3      H1             16.3077978802       19.2114360695      -37.7792877128  TIP3      3979            0.0000000000
     25737      4079  TIP3      H2             16.6933080017       20.1311371573      -36.6725372505  TIP3      3979            0.0000000000
     25738      4080  TIP3      OH2            24.3183939244       19.3320464243      -28.9921673814  TIP3      3980            0.0000000000
     25739      4080  TIP3      H1             24.8599530769       19.9914841724      -29.4897998457  TIP3      3980            0.0000000000
     25740      4080  TIP3      H2             23.5877684871       19.1696530756      -29.6121698363  TIP3      3980            0.0000000000
     25741      4081  TIP3      OH2            20.6378509266       12.6680562322      -39.5954302589  TIP3      3981            0.0000000000
     25742      4081  TIP3      H1             19.6722136510       12.6117917706      -39.6858892356  TIP3      3981            0.0000000000
     25743      4081  TIP3      H2             20.7734287720       13.5658351904      -39.2317951434  TIP3      3981            0.0000000000
     25744      4082  TIP3      OH2            18.0929549040       20.3550999473      -26.6147511039  TIP3      3982            0.0000000000
     25745      4082  TIP3      H1             17.7392222181       20.2031949594      -25.7264453329  TIP3      3982            0.0000000000
     25746      4082  TIP3      H2             17.8009003802       21.2690942714      -26.7571509087  TIP3      3982            0.0000000000
     25747      4083  TIP3      OH2            21.4496112918       14.7187469748      -38.0752461909  TIP3      3983            0.0000000000
     25748      4083  TIP3      H1             22.2480056644       14.5393504197      -37.5475128464  TIP3      3983            0.0000000000
     25749      4083  TIP3      H2             21.5598616912       15.6699072117      -38.2907278476  TIP3      3983            0.0000000000
     25750      4084  TIP3      OH2            12.0348622930       19.2835586028      -32.2861414336  TIP3      3984            0.0000000000
     25751      4084  TIP3      H1             12.6017759735       19.0377964381      -33.0451058037  TIP3      3984            0.0000000000
     25752      4084  TIP3      H2             12.2929802800       18.6508796178      -31.5916974758  TIP3      3984            0.0000000000
     25753      4085  TIP3      OH2            19.1600974162       21.3901397672      -38.2947442362  TIP3      3985            0.0000000000
     25754      4085  TIP3      H1             18.6041685790       22.2023909064      -38.2296553039  TIP3      3985            0.0000000000
     25755      4085  TIP3      H2             18.4890157065       20.6884067274      -38.1684373749  TIP3      3985            0.0000000000
     25756      4086  TIP3      OH2             9.2145917960       17.2464227190      -27.1111813314  TIP3      3986            0.0000000000
     25757      4086  TIP3      H1              8.8266657575       16.8166322353      -26.3235418256  TIP3      3986            0.0000000000
     25758      4086  TIP3      H2              8.5340148171       17.0281050379      -27.7816862011  TIP3      3986            0.0000000000
     25759      4087  TIP3      OH2            15.9005787317       16.9108102343      -25.0617945030  TIP3      3987            0.0000000000
     25760      4087  TIP3      H1             15.4264594193       16.4635950234      -25.7858519902  TIP3      3987            0.0000000000
     25761      4087  TIP3      H2             16.7771095801       16.4749322153      -25.1054784729  TIP3      3987            0.0000000000
     25762      4088  TIP3      OH2            20.8657095961       22.4951941630      -26.6729330577  TIP3      3988            0.0000000000
     25763      4088  TIP3      H1             19.9045878897       22.5710833243      -26.6700315452  TIP3      3988            0.0000000000
     25764      4088  TIP3      H2             21.0470783570       22.8281233563      -25.7701990308  TIP3      3988            0.0000000000
     25765      4089  TIP3      OH2            25.5196361932       14.7590492761      -37.8369307425  TIP3      3989            0.0000000000
     25766      4089  TIP3      H1             25.2940569655       14.6520780716      -38.8018379661  TIP3      3989            0.0000000000
     25767      4089  TIP3      H2             25.8888094999       15.6607324261      -37.8476523398  TIP3      3989            0.0000000000
     25768      4090  TIP3      OH2            26.4654985053       20.7688775624      -25.3608118401  TIP3      3990            0.0000000000
     25769      4090  TIP3      H1             25.5534546221       21.0081804512      -25.6259775372  TIP3      3990            0.0000000000
     25770      4090  TIP3      H2             26.9196690136       20.7025154592      -26.2285439257  TIP3      3990            0.0000000000
     25771      4091  TIP3      OH2            24.9802501744       23.1279737133      -37.5781790590  TIP3      3991            0.0000000000
     25772      4091  TIP3      H1             24.2104645541       22.8692962421      -37.0518067077  TIP3      3991            0.0000000000
     25773      4091  TIP3      H2             24.7738136176       22.7929002744      -38.4674449008  TIP3      3991            0.0000000000
     25774      4092  TIP3      OH2            21.8053139472       18.2936658671      -30.8554118676  TIP3      3992            0.0000000000
     25775      4092  TIP3      H1             20.8596035005       18.1081831078      -30.9704941560  TIP3      3992            0.0000000000
     25776      4092  TIP3      H2             22.1892094010       17.6096335874      -31.4282364133  TIP3      3992            0.0000000000
     25777      4093  TIP3      OH2            14.2860728066       22.6578144822      -34.7960262162  TIP3      3993            0.0000000000
     25778      4093  TIP3      H1             14.5505658221       23.5718845380      -35.0318673347  TIP3      3993            0.0000000000
     25779      4093  TIP3      H2             13.3334823472       22.7152917826      -34.9169588560  TIP3      3993            0.0000000000
     25780      4094  TIP3      OH2            10.6469349395       17.3682902833      -40.1950090301  TIP3      3994            0.0000000000
     25781      4094  TIP3      H1             10.9856920705       17.8501089970      -39.4176682383  TIP3      3994            0.0000000000
     25782      4094  TIP3      H2              9.6849388917       17.3844072420      -40.0706054056  TIP3      3994            0.0000000000
     25783      4095  TIP3      OH2            15.6325150048       20.3973843483      -35.2105228280  TIP3      3995            0.0000000000
     25784      4095  TIP3      H1             15.1247093009       21.2359213248      -35.0874139223  TIP3      3995            0.0000000000
     25785      4095  TIP3      H2             15.0655559932       19.7514793138      -34.7556852370  TIP3      3995            0.0000000000
     25786      4096  TIP3      OH2            16.3596638174       24.6053691042      -28.2764540970  TIP3      3996            0.0000000000
     25787      4096  TIP3      H1             17.0735054491       25.1310935528      -28.6738646009  TIP3      3996            0.0000000000
     25788      4096  TIP3      H2             16.8713124454       24.1014272365      -27.6040921340  TIP3      3996            0.0000000000
     25789      4097  TIP3      OH2            14.5024283674       25.2252727272      -35.6619309465  TIP3      3997            0.0000000000
     25790      4097  TIP3      H1             13.5878086671       25.4633940111      -35.4067634614  TIP3      3997            0.0000000000
     25791      4097  TIP3      H2             15.0105666131       25.9198232878      -35.1995896641  TIP3      3997            0.0000000000
     25792      4098  TIP3      OH2            19.2945278901       20.3846610063      -29.1380289173  TIP3      3998            0.0000000000
     25793      4098  TIP3      H1             19.0032578582       20.2068082463      -28.2141468458  TIP3      3998            0.0000000000
     25794      4098  TIP3      H2             19.7250850660       19.5358772647      -29.3595434284  TIP3      3998            0.0000000000
     25795      4099  TIP3      OH2            22.1242135368       21.7013195593      -39.7822461736  TIP3      3999            0.0000000000
     25796      4099  TIP3      H1             22.2169348953       21.2216118050      -38.9268928699  TIP3      3999            0.0000000000
     25797      4099  TIP3      H2             21.1681240436       21.6167565377      -39.9161228547  TIP3      3999            0.0000000000
     25798      4100  TIP3      OH2            22.5568444150       25.1040321569      -26.7567667078  TIP3      4000            0.0000000000
     25799      4100  TIP3      H1             21.7326446883       24.5825337766      -26.8608956873  TIP3      4000            0.0000000000
     25800      4100  TIP3      H2             22.4781012606       25.7929882137      -27.4484248893  TIP3      4000            0.0000000000
     25801      4101  TIP3      OH2            26.6737593346       26.4126268919      -39.9291063183  TIP3      4001            0.0000000000
     25802      4101  TIP3      H1             27.2890065062       27.0763952356      -39.5459027413  TIP3      4001            0.0000000000
     25803      4101  TIP3      H2             25.8255462877       26.6711544760      -39.4977230100  TIP3      4001            0.0000000000
     25804      4102  TIP3      OH2            10.8343007237       12.1187375527      -27.4577755767  TIP3      4002            0.0000000000
     25805      4102  TIP3      H1             10.0743067077       12.7151735419      -27.3953675845  TIP3      4002            0.0000000000
     25806      4102  TIP3      H2             10.4478251203       11.3068929995      -27.1050505132  TIP3      4002            0.0000000000
     25807      4103  TIP3      OH2            22.8886290446       20.2888783450      -37.5499096971  TIP3      4003            0.0000000000
     25808      4103  TIP3      H1             22.7155593006       19.4210957168      -37.1236738565  TIP3      4003            0.0000000000
     25809      4103  TIP3      H2             23.8589679679       20.2109085558      -37.6901176203  TIP3      4003            0.0000000000
     25810      4104  TIP3      OH2            10.4545287274       23.8888722701      -28.7763214740  TIP3      4004            0.0000000000
     25811      4104  TIP3      H1             11.1811899785       23.2557362447      -28.7788494234  TIP3      4004            0.0000000000
     25812      4104  TIP3      H2             10.7973421652       24.5840958992      -28.1908089537  TIP3      4004            0.0000000000
     25813      4105  TIP3      OH2            14.7793157123       22.2728465574      -38.9341624234  TIP3      4005            0.0000000000
     25814      4105  TIP3      H1             15.3705868734       21.7971003888      -38.3274461991  TIP3      4005            0.0000000000
     25815      4105  TIP3      H2             14.8989285867       23.2155009336      -38.6681577820  TIP3      4005            0.0000000000
     25816      4106  TIP3      OH2            11.6173064023       19.2869803260      -38.2887176088  TIP3      4006            0.0000000000
     25817      4106  TIP3      H1             10.8684925792       19.7216935312      -37.8319177902  TIP3      4006            0.0000000000
     25818      4106  TIP3      H2             11.8431899072       19.9488713890      -38.9684861197  TIP3      4006            0.0000000000
     25819      4107  TIP3      OH2            19.1330181584       12.3851039195      -27.7701643109  TIP3      4007            0.0000000000
     25820      4107  TIP3      H1             19.9828523707       12.6823866010      -27.3996619699  TIP3      4007            0.0000000000
     25821      4107  TIP3      H2             19.1477945222       11.4268054900      -27.5763586656  TIP3      4007            0.0000000000
     25822      4108  TIP3      OH2            20.1263826673       11.5388022864      -37.1158159316  TIP3      4008            0.0000000000
     25823      4108  TIP3      H1             20.6611111257       12.0073381637      -37.7923197494  TIP3      4008            0.0000000000
     25824      4108  TIP3      H2             20.5663111577       11.8029637602      -36.2815793259  TIP3      4008            0.0000000000
     25825      4109  TIP3      OH2            17.7252240287       23.8276176306      -38.3494362450  TIP3      4009            0.0000000000
     25826      4109  TIP3      H1             16.9061423310       24.3212414093      -38.1683809326  TIP3      4009            0.0000000000
     25827      4109  TIP3      H2             17.9268439686       24.0487805346      -39.2831259246  TIP3      4009            0.0000000000
     25828      4110  TIP3      OH2            17.5130610354       13.6849660470      -35.9302444788  TIP3      4010            0.0000000000
     25829      4110  TIP3      H1             18.2467222875       14.3231845963      -35.7810444317  TIP3      4010            0.0000000000
     25830      4110  TIP3      H2             17.4357575056       13.2017426519      -35.0811876722  TIP3      4010            0.0000000000
     25831      4111  TIP3      OH2            18.0557669929       14.8147279160      -27.5037868128  TIP3      4011            0.0000000000
     25832      4111  TIP3      H1             17.7912475062       14.8220787241      -26.5724869865  TIP3      4011            0.0000000000
     25833      4111  TIP3      H2             18.3036719071       13.8758545394      -27.6752629854  TIP3      4011            0.0000000000
     25834      4112  TIP3      OH2            18.1872724057       10.2523544777      -35.7767150087  TIP3      4012            0.0000000000
     25835      4112  TIP3      H1             17.9271643875       11.0013138189      -35.2045078148  TIP3      4012            0.0000000000
     25836      4112  TIP3      H2             18.9290778396       10.6730294637      -36.2908806689  TIP3      4012            0.0000000000
     25837      4113  TIP3      OH2            15.1232719877       24.8951923703      -38.3212404163  TIP3      4013            0.0000000000
     25838      4113  TIP3      H1             15.3188227708       25.7324907639      -38.8089562478  TIP3      4013            0.0000000000
     25839      4113  TIP3      H2             14.7701992210       25.2291296390      -37.4700682790  TIP3      4013            0.0000000000
     25840      4114  TIP3      OH2            13.7091789640       11.6856409967      -38.5871385888  TIP3      4014            0.0000000000
     25841      4114  TIP3      H1             13.6481662019       12.5022313724      -38.0604236239  TIP3      4014            0.0000000000
     25842      4114  TIP3      H2             14.5831830081       11.3432687610      -38.3225650112  TIP3      4014            0.0000000000
     25843      4115  TIP3      OH2            23.9611835905       12.3996246125      -26.3509305591  TIP3      4015            0.0000000000
     25844      4115  TIP3      H1             22.9839676716       12.4644603022      -26.3644870430  TIP3      4015            0.0000000000
     25845      4115  TIP3      H2             24.1948950229       12.5855086824      -27.2787001971  TIP3      4015            0.0000000000
     25846      4116  TIP3      OH2            22.6795760198       16.3708767183      -32.6091909829  TIP3      4016            0.0000000000
     25847      4116  TIP3      H1             21.8847208797       15.8580352208      -32.3815808454  TIP3      4016            0.0000000000
     25848      4116  TIP3      H2             23.3578776275       15.8236993290      -32.1472039437  TIP3      4016            0.0000000000
     25849      4117  TIP3      OH2            12.2585646172       21.7961721495      -39.9595898482  TIP3      4017            0.0000000000
     25850      4117  TIP3      H1             13.0269701704       22.0466029326      -39.3977745723  TIP3      4017            0.0000000000
     25851      4117  TIP3      H2             12.7147708532       21.2151108232      -40.6085598364  TIP3      4017            0.0000000000
     25852      4118  TIP3      OH2            10.3858183355       14.6989773376      -40.6107720668  TIP3      4018            0.0000000000
     25853      4118  TIP3      H1             10.7765804281       15.5440185641      -40.3220428195  TIP3      4018            0.0000000000
     25854      4118  TIP3      H2              9.5408427466       14.9815285619      -40.9721148191  TIP3      4018            0.0000000000
     25855      4119  TIP3      OH2            23.9885382887       25.9270717585      -30.5844103892  TIP3      4019            0.0000000000
     25856      4119  TIP3      H1             23.8901419267       26.4078060156      -31.4386308391  TIP3      4019            0.0000000000
     25857      4119  TIP3      H2             24.9532192188       26.0436469615      -30.4335767330  TIP3      4019            0.0000000000
     25858      4120  TIP3      OH2            11.5539922952        9.5342611072      -31.5766628011  TIP3      4020            0.0000000000
     25859      4120  TIP3      H1             11.0280826620        9.4458751869      -32.3945697619  TIP3      4020            0.0000000000
     25860      4120  TIP3      H2             11.2530920927        8.7170426685      -31.1190852026  TIP3      4020            0.0000000000
     25861      4121  TIP3      OH2             9.8918578912       23.4862442425      -35.5310123917  TIP3      4021            0.0000000000
     25862      4121  TIP3      H1              9.1718119167       23.9699655126      -35.9679837803  TIP3      4021            0.0000000000
     25863      4121  TIP3      H2             10.4779948870       23.4442476741      -36.2884823632  TIP3      4021            0.0000000000
     25864      4122  TIP3      OH2             9.3099843952       26.2283739983      -24.2943447951  TIP3      4022            0.0000000000
     25865      4122  TIP3      H1             10.1576795619       26.1412873262      -23.8323467248  TIP3      4022            0.0000000000
     25866      4122  TIP3      H2              9.0590608984       25.3215065857      -24.5235397460  TIP3      4022            0.0000000000
     25867      4123  TIP3      OH2            13.7411059480       24.9526562757      -22.8897880958  TIP3      4023            0.0000000000
     25868      4123  TIP3      H1             14.5792769373       24.4831732776      -22.7112214586  TIP3      4023            0.0000000000
     25869      4123  TIP3      H2             13.5896509787       24.6331326072      -23.8073502685  TIP3      4023            0.0000000000
     25870      4124  TIP3      OH2            18.1789783317       24.4387305397      -41.0112591732  TIP3      4024            0.0000000000
     25871      4124  TIP3      H1             17.7927852057       23.5859619494      -41.2350795247  TIP3      4024            0.0000000000
     25872      4124  TIP3      H2             18.4866852818       24.7306917650      -41.8883320582  TIP3      4024            0.0000000000
     25873      4125  TIP3      OH2            20.6222694955       23.6556336096      -24.1629355143  TIP3      4025            0.0000000000
     25874      4125  TIP3      H1             20.1213814852       22.8598042462      -23.8730812383  TIP3      4025            0.0000000000
     25875      4125  TIP3      H2             20.8166768598       24.0470238555      -23.2924384242  TIP3      4025            0.0000000000
     25876      4126  TIP3      OH2            22.8428431314       24.2991671652      -40.9731929535  TIP3      4026            0.0000000000
     25877      4126  TIP3      H1             22.8038484516       23.4302383528      -40.5223485013  TIP3      4026            0.0000000000
     25878      4126  TIP3      H2             23.7141570996       24.2674579860      -41.3844191338  TIP3      4026            0.0000000000
     25879      4127  TIP3      OH2             9.1020532477       20.0865318945      -23.4916734493  TIP3      4027            0.0000000000
     25880      4127  TIP3      H1              8.5855882766       19.3985606231      -23.0389218085  TIP3      4027            0.0000000000
     25881      4127  TIP3      H2              8.5905920143       20.2125130660      -24.3218373738  TIP3      4027            0.0000000000
     25882      4128  TIP3      OH2            14.0793447724       20.0628892586      -41.0517426175  TIP3      4028            0.0000000000
     25883      4128  TIP3      H1             14.4330037478       19.7351440188      -40.2114292496  TIP3      4028            0.0000000000
     25884      4128  TIP3      H2             14.3378474933       19.3301236150      -41.6513650351  TIP3      4028            0.0000000000
     25885      4129  TIP3      OH2            16.1365892759       19.6243884812      -24.3671586064  TIP3      4029            0.0000000000
     25886      4129  TIP3      H1             15.6317991921       20.1830391945      -24.9968696295  TIP3      4029            0.0000000000
     25887      4129  TIP3      H2             15.8515183907       18.7065864368      -24.5677065478  TIP3      4029            0.0000000000
     25888      4130  TIP3      OH2            21.5062390667       19.6679217112      -26.7327659840  TIP3      4030            0.0000000000
     25889      4130  TIP3      H1             22.2694406995       20.2750991536      -26.8060392155  TIP3      4030            0.0000000000
     25890      4130  TIP3      H2             20.7916327899       20.3212759576      -26.7412558889  TIP3      4030            0.0000000000
     25891      4131  TIP3      OH2             9.4904590095       16.8289408730      -23.9940991397  TIP3      4031            0.0000000000
     25892      4131  TIP3      H1             10.2953729765       17.3547315411      -24.1069988402  TIP3      4031            0.0000000000
     25893      4131  TIP3      H2              9.3159675906       17.0175998470      -23.0513081941  TIP3      4031            0.0000000000
     25894      4132  TIP3      OH2            14.9716480849       18.1455305633      -38.7110608417  TIP3      4032            0.0000000000
     25895      4132  TIP3      H1             14.2847325879       17.5323987729      -38.3896110608  TIP3      4032            0.0000000000
     25896      4132  TIP3      H2             15.4699391707       17.5998807777      -39.3503811281  TIP3      4032            0.0000000000
     25897      4133  TIP3      OH2            14.1459982823       15.8740897111      -27.0754470442  TIP3      4033            0.0000000000
     25898      4133  TIP3      H1             13.3976410352       16.4911498269      -26.9222003636  TIP3      4033            0.0000000000
     25899      4133  TIP3      H2             14.7408152133       16.4317197239      -27.6244052474  TIP3      4033            0.0000000000
     25900      4134  TIP3      OH2            16.3366229650       16.6932615814      -40.7410323444  TIP3      4034            0.0000000000
     25901      4134  TIP3      H1             16.6568099610       16.3215007692      -41.5792841701  TIP3      4034            0.0000000000
     25902      4134  TIP3      H2             17.1957871458       16.7412098413      -40.2563962785  TIP3      4034            0.0000000000
     25903      4135  TIP3      OH2            19.5395817058       18.3444162641      -23.3860166156  TIP3      4035            0.0000000000
     25904      4135  TIP3      H1             20.1172329514       17.9942516720      -24.0814024420  TIP3      4035            0.0000000000
     25905      4135  TIP3      H2             18.7207914296       17.8401256337      -23.5205447589  TIP3      4035            0.0000000000
     25906      4136  TIP3      OH2            25.1307197086       18.8752063903      -41.8545888715  TIP3      4036            0.0000000000
     25907      4136  TIP3      H1             24.8782460418       18.6693574163      -42.7767004299  TIP3      4036            0.0000000000
     25908      4136  TIP3      H2             25.2435983209       19.8346607247      -41.8711681555  TIP3      4036            0.0000000000
     25909      4137  TIP3      OH2            14.1774047352       13.5424549783      -25.8413677031  TIP3      4037            0.0000000000
     25910      4137  TIP3      H1             14.5731536126       12.8354601352      -26.3914137730  TIP3      4037            0.0000000000
     25911      4137  TIP3      H2             14.2290819790       14.3447754197      -26.4184766782  TIP3      4037            0.0000000000
     25912      4138  TIP3      OH2            15.0629930353       11.7016963470      -27.8666933399  TIP3      4038            0.0000000000
     25913      4138  TIP3      H1             15.6008915615       12.2740676621      -28.4666482060  TIP3      4038            0.0000000000
     25914      4138  TIP3      H2             14.2217208537       11.6729746986      -28.3687642609  TIP3      4038            0.0000000000
     25915      4139  TIP3      OH2            16.0279665249       17.5127434657      -28.1000846737  TIP3      4039            0.0000000000
     25916      4139  TIP3      H1             16.9366131383       17.8202099171      -27.9993607992  TIP3      4039            0.0000000000
     25917      4139  TIP3      H2             15.5466882854       18.3151779293      -28.3948096945  TIP3      4039            0.0000000000
     25918      4140  TIP3      OH2            22.3408570488       17.9370779294      -24.6977884285  TIP3      4040            0.0000000000
     25919      4140  TIP3      H1             22.1702311776       18.7063046312      -25.2788177274  TIP3      4040            0.0000000000
     25920      4140  TIP3      H2             23.3041787284       17.8614582523      -24.7650939848  TIP3      4040            0.0000000000
     25921      4141  TIP3      OH2            12.7203363892       14.3793467363      -23.8483493392  TIP3      4041            0.0000000000
     25922      4141  TIP3      H1             11.8578347411       14.1271752267      -24.2146008274  TIP3      4041            0.0000000000
     25923      4141  TIP3      H2             13.3135274769       14.1932113902      -24.6185902085  TIP3      4041            0.0000000000
     25924      4142  TIP3      OH2            16.0843250330        9.2107105064      -27.9316718693  TIP3      4042            0.0000000000
     25925      4142  TIP3      H1             15.7739485740       10.1435228878      -27.9185250089  TIP3      4042            0.0000000000
     25926      4142  TIP3      H2             15.2774056726        8.7430110721      -28.2009258999  TIP3      4042            0.0000000000
     25927      4143  TIP3      OH2            16.8641319768       13.6806213053      -24.0092425888  TIP3      4043            0.0000000000
     25928      4143  TIP3      H1             17.2280063371       13.0697994277      -23.3261693571  TIP3      4043            0.0000000000
     25929      4143  TIP3      H2             16.1272264768       13.1820092762      -24.3868029311  TIP3      4043            0.0000000000
     25930      4144  TIP3      OH2            19.9618813042       12.4692895454      -24.6480090334  TIP3      4044            0.0000000000
     25931      4144  TIP3      H1             19.0670834311       12.1098926345      -24.6823641154  TIP3      4044            0.0000000000
     25932      4144  TIP3      H2             20.3265601266       12.0152660976      -23.8662804853  TIP3      4044            0.0000000000
     25933      4145  TIP3      OH2            10.7266031917       12.3505693557      -23.7705414734  TIP3      4045            0.0000000000
     25934      4145  TIP3      H1             11.5287042768       11.9360838725      -24.1216200237  TIP3      4045            0.0000000000
     25935      4145  TIP3      H2             10.1214452763       11.6080695828      -23.9263932204  TIP3      4045            0.0000000000
     25936      4146  TIP3      OH2            15.8544586483        9.0380910944      -25.1964550666  TIP3      4046            0.0000000000
     25937      4146  TIP3      H1             16.4452488869        8.2809831111      -25.0022469919  TIP3      4046            0.0000000000
     25938      4146  TIP3      H2             15.9224459711        9.0359877238      -26.1721759491  TIP3      4046            0.0000000000
     25939      4147  TIP3      OH2            16.1742645425       10.0954240439      -22.6617476252  TIP3      4047            0.0000000000
     25940      4147  TIP3      H1             16.0832013202        9.8069802459      -23.5953645031  TIP3      4047            0.0000000000
     25941      4147  TIP3      H2             15.3969533204       10.6732033649      -22.5814169771  TIP3      4047            0.0000000000
     25942      4148  TIP3      OH2            15.7880712752       26.9503933212      -39.8918992900  TIP3      4048            0.0000000000
     25943      4148  TIP3      H1             16.6617442504       27.3045286256      -39.6631035795  TIP3      4048            0.0000000000
     25944      4148  TIP3      H2             15.7838104481       27.0608569220      -40.8683552378  TIP3      4048            0.0000000000
     25945      4149  TIP3      OH2             9.5631182353       21.5035567693      -40.0236106699  TIP3      4049            0.0000000000
     25946      4149  TIP3      H1             10.5237621006       21.6574110665      -39.8907134845  TIP3      4049            0.0000000000
     25947      4149  TIP3      H2              9.5781198249       21.3843618170      -40.9988064176  TIP3      4049            0.0000000000
     25948      4150  TIP3      OH2             8.3656673106       26.7369700613      -35.3604546758  TIP3      4050            0.0000000000
     25949      4150  TIP3      H1              7.5468035203       26.2594458845      -35.6334919245  TIP3      4050            0.0000000000
     25950      4150  TIP3      H2              8.5940058568       26.2361022337      -34.5468299509  TIP3      4050            0.0000000000
     25951      4151  TIP3      OH2             9.0575333243       25.3458507262      -33.1549689795  TIP3      4051            0.0000000000
     25952      4151  TIP3      H1              8.5993152767       24.7016667869      -32.5972660880  TIP3      4051            0.0000000000
     25953      4151  TIP3      H2              9.7365385491       25.6706222540      -32.5313763568  TIP3      4051            0.0000000000
     25954      4152  TIP3      OH2            26.6795198104       26.5774358155      -30.2585570473  TIP3      4052            0.0000000000
     25955      4152  TIP3      H1             26.7802210289       27.2637426632      -29.5777333848  TIP3      4052            0.0000000000
     25956      4152  TIP3      H2             27.6320838943       26.3647843583      -30.3660718241  TIP3      4052            0.0000000000
     25957      4153  TIP3      OH2            26.0690408339       25.2292655744      -27.6336350386  TIP3      4053            0.0000000000
     25958      4153  TIP3      H1             25.7116687092       24.5464927911      -28.2358096906  TIP3      4053            0.0000000000
     25959      4153  TIP3      H2             26.5675278039       24.6696159269      -27.0051217873  TIP3      4053            0.0000000000
     25960      4154  TIP3      OH2            24.3026157340       21.6258704870      -22.9407846055  TIP3      4054            0.0000000000
     25961      4154  TIP3      H1             23.4364394937       21.9823870368      -22.6938992567  TIP3      4054            0.0000000000
     25962      4154  TIP3      H2             24.8022687122       22.4519087646      -23.1033557780  TIP3      4054            0.0000000000
     25963      4155  TIP3      OH2            25.4927324855       19.6588120608      -37.6853202691  TIP3      4055            0.0000000000
     25964      4155  TIP3      H1             26.2660672636       20.2773622963      -37.6837381301  TIP3      4055            0.0000000000
     25965      4155  TIP3      H2             25.6371276595       19.1882147344      -36.8466091144  TIP3      4055            0.0000000000
     25966      4156  TIP3      OH2            26.4690275765       17.7544271413      -35.4045748399  TIP3      4056            0.0000000000
     25967      4156  TIP3      H1             25.6260364037       17.4584711093      -34.9957911895  TIP3      4056            0.0000000000
     25968      4156  TIP3      H2             26.9440491443       18.1147326124      -34.6221166871  TIP3      4056            0.0000000000
     25969      4157  TIP3      OH2            26.2364358223       20.4822538089      -30.3881646424  TIP3      4057            0.0000000000
     25970      4157  TIP3      H1             26.7489531424       19.7787888557      -30.8487231386  TIP3      4057            0.0000000000
     25971      4157  TIP3      H2             26.5629172809       21.3049036614      -30.7978981366  TIP3      4057            0.0000000000
     25972      4158  TIP3      OH2            24.5782793564       23.1472070677      -28.6678177888  TIP3      4058            0.0000000000
     25973      4158  TIP3      H1             23.8677174931       23.7475831478      -28.3811494209  TIP3      4058            0.0000000000
     25974      4158  TIP3      H2             24.1588541952       22.7100943070      -29.4325119378  TIP3      4058            0.0000000000
     25975      4159  TIP3      OH2            26.5259499519       17.5521462329      -39.4633834216  TIP3      4059            0.0000000000
     25976      4159  TIP3      H1             25.6938993475       17.5320028856      -39.9649123444  TIP3      4059            0.0000000000
     25977      4159  TIP3      H2             26.3710353523       18.2888706409      -38.8328854226  TIP3      4059            0.0000000000
     25978      4160  TIP3      OH2            24.9460126330       14.5612485990      -40.4879287920  TIP3      4060            0.0000000000
     25979      4160  TIP3      H1             24.8229657994       15.1687037866      -41.2266125021  TIP3      4060            0.0000000000
     25980      4160  TIP3      H2             24.6686861134       13.7173133591      -40.9191060332  TIP3      4060            0.0000000000
     25981      4161  TIP3      OH2            24.4089746423       16.4756338782      -34.5668412177  TIP3      4061            0.0000000000
     25982      4161  TIP3      H1             24.0700316881       15.6773830460      -35.0123712378  TIP3      4061            0.0000000000
     25983      4161  TIP3      H2             23.8631382080       16.4718613363      -33.7480793736  TIP3      4061            0.0000000000
     25984      4162  TIP3      OH2             9.0117314423       18.4185128937      -30.7758921781  TIP3      4062            0.0000000000
     25985      4162  TIP3      H1              9.0121689826       18.1313704465      -31.7210398093  TIP3      4062            0.0000000000
     25986      4162  TIP3      H2              9.9000785702       18.0875980081      -30.4986666620  TIP3      4062            0.0000000000
     25987      4163  TIP3      OH2            25.2567831378       18.2556708204      -25.2099485922  TIP3      4063            0.0000000000
     25988      4163  TIP3      H1             25.8674154310       17.5726629750      -24.8434762348  TIP3      4063            0.0000000000
     25989      4163  TIP3      H2             25.8223689959       19.0504200583      -25.2747145532  TIP3      4063            0.0000000000
     25990      4164  TIP3      OH2            26.1374993996       16.0486153216      -24.1799357075  TIP3      4064            0.0000000000
     25991      4164  TIP3      H1             25.1772788443       15.9771537729      -24.3789131438  TIP3      4064            0.0000000000
     25992      4164  TIP3      H2             26.3547862908       15.1025402200      -24.3288446811  TIP3      4064            0.0000000000
     25993      4165  TIP3      OH2            24.0514616525       12.2512129049      -41.6367778512  TIP3      4065            0.0000000000
     25994      4165  TIP3      H1             24.5797726373       11.4849945285      -41.3636083317  TIP3      4065            0.0000000000
     25995      4165  TIP3      H2             23.1430874235       11.9696514179      -41.4588098331  TIP3      4065            0.0000000000
     25996      4166  TIP3      OH2            23.4760225376       14.0695163019      -36.1928010464  TIP3      4066            0.0000000000
     25997      4166  TIP3      H1             23.5644282956       13.0940164344      -36.1028705055  TIP3      4066            0.0000000000
     25998      4166  TIP3      H2             24.1943428991       14.2254465324      -36.8431568508  TIP3      4066            0.0000000000
     25999      4167  TIP3      OH2            23.9868927484       14.4164982798      -31.0879467684  TIP3      4067            0.0000000000
     26000      4167  TIP3      H1             24.9541995678       14.3238958817      -31.2293262912  TIP3      4067            0.0000000000
     26001      4167  TIP3      H2             23.9909906512       14.4437254636      -30.1165562556  TIP3      4067            0.0000000000
     26002      4168  TIP3      OH2            24.4875403572       15.1968451118      -28.1451557903  TIP3      4068            0.0000000000
     26003      4168  TIP3      H1             23.6169752198       15.4839926438      -27.8211579539  TIP3      4068            0.0000000000
     26004      4168  TIP3      H2             24.9194317142       16.0622975967      -28.3235895219  TIP3      4068            0.0000000000
     26005      4169  TIP3      OH2             8.2282976743       13.3996771829      -24.5840062512  TIP3      4069            0.0000000000
     26006      4169  TIP3      H1              9.1345369610       13.3535520370      -24.2315375643  TIP3      4069            0.0000000000
     26007      4169  TIP3      H2              7.9073625341       12.4830206674      -24.4814281972  TIP3      4069            0.0000000000
     26008      4170  TIP3      OH2            26.2630933841        9.6558379484      -23.4143345391  TIP3      4070            0.0000000000
     26009      4170  TIP3      H1             26.8021126314        8.9007789051      -23.7363233434  TIP3      4070            0.0000000000
     26010      4170  TIP3      H2             26.3835860303       10.2897896098      -24.1493472446  TIP3      4070            0.0000000000
     26011      4171  TIP3      OH2            24.0363412148       11.3231319253      -36.2192485237  TIP3      4071            0.0000000000
     26012      4171  TIP3      H1             24.3937333008       10.9297689411      -35.3896765546  TIP3      4071            0.0000000000
     26013      4171  TIP3      H2             23.5346260159       10.5815337221      -36.5871879846  TIP3      4071            0.0000000000
     26014      4172  TIP3      OH2             9.7714987911       11.6916071449      -30.9004818118  TIP3      4072            0.0000000000
     26015      4172  TIP3      H1             10.0145500386       10.8196237315      -31.2718694166  TIP3      4072            0.0000000000
     26016      4172  TIP3      H2             10.4624421145       12.2600488928      -31.2833809309  TIP3      4072            0.0000000000
     26017      4173  TIP3      OH2             8.3582115035       14.7424119934      -30.7684996019  TIP3      4073            0.0000000000
     26018      4173  TIP3      H1              8.8848033087       14.2604083727      -31.4275499509  TIP3      4073            0.0000000000
     26019      4173  TIP3      H2              8.8436461807       15.5783997689      -30.7164869530  TIP3      4073            0.0000000000
     26020      4174  TIP3      OH2            26.2107230817       11.1863748803      -25.7169923796  TIP3      4074            0.0000000000
     26021      4174  TIP3      H1             25.3428275480       11.6275353931      -25.8960821134  TIP3      4074            0.0000000000
     26022      4174  TIP3      H2             26.0332650696       10.3324682383      -26.1781712899  TIP3      4074            0.0000000000
     26023      4175  TIP3      OH2            26.2610053958       10.6925389017      -39.8138720932  TIP3      4075            0.0000000000
     26024      4175  TIP3      H1             26.9703291489       10.0380294312      -39.9464648073  TIP3      4075            0.0000000000
     26025      4175  TIP3      H2             26.7174587643       11.3277009869      -39.2295598004  TIP3      4075            0.0000000000
     26026      4176  TIP3      OH2             8.3255079615       10.7255194507      -36.6386348694  TIP3      4076            0.0000000000
     26027      4176  TIP3      H1              7.4252907293       10.8871503908      -36.9330034411  TIP3      4076            0.0000000000
     26028      4176  TIP3      H2              8.8279102410       11.2310858293      -37.3067782208  TIP3      4076            0.0000000000
     26029      4177  TIP3      OH2            23.4007236943       25.8223857846      -34.9744896665  TIP3      4077            0.0000000000
     26030      4177  TIP3      H1             24.2890992223       25.9617113037      -35.3603639796  TIP3      4077            0.0000000000
     26031      4177  TIP3      H2             23.2268349726       26.6147018589      -34.4371126793  TIP3      4077            0.0000000000
     26032      4178  TIP3      OH2             8.5940787688        9.5262449235      -28.5650660050  TIP3      4078            0.0000000000
     26033      4178  TIP3      H1              7.9062380558        9.2832573493      -27.9227438887  TIP3      4078            0.0000000000
     26034      4178  TIP3      H2              8.1437659169       10.1582190693      -29.1485509020  TIP3      4078            0.0000000000
     26035      4179  TIP3      OH2            11.0307742499       22.6270999165      -24.0212815051  TIP3      4079            0.0000000000
     26036      4179  TIP3      H1             10.5317026975       22.8807114413      -24.8053123657  TIP3      4079            0.0000000000
     26037      4179  TIP3      H2             10.3214585882       22.5904229399      -23.3746993631  TIP3      4079            0.0000000000
     26038      4180  TIP3      OH2            13.4581121332       24.2033018238      -27.8678412340  TIP3      4080            0.0000000000
     26039      4180  TIP3      H1             13.4394565721       25.1847291357      -27.9564639593  TIP3      4080            0.0000000000
     26040      4180  TIP3      H2             14.4278715163       24.0925295937      -27.8390597478  TIP3      4080            0.0000000000
     26041      4181  TIP3      OH2            17.9536905592       25.2872702295      -24.7730898271  TIP3      4081            0.0000000000
     26042      4181  TIP3      H1             18.1733471058       24.9053066820      -23.8978450492  TIP3      4081            0.0000000000
     26043      4181  TIP3      H2             18.8102271677       25.7093397578      -24.9964026633  TIP3      4081            0.0000000000
     26044      4182  TIP3      OH2            20.0746807168       26.9633717607      -25.5050818786  TIP3      4082            0.0000000000
     26045      4182  TIP3      H1             20.8077949162       26.6882972183      -26.0829186366  TIP3      4082            0.0000000000
     26046      4182  TIP3      H2             20.5119214659       26.9704860208      -24.6161302132  TIP3      4082            0.0000000000
     26047      4183  TIP3      OH2            25.1628975617        9.0064118324      -26.8296060793  TIP3      4083            0.0000000000
     26048      4183  TIP3      H1             24.6414373295        9.3657226089      -27.5799418904  TIP3      4083            0.0000000000
     26049      4183  TIP3      H2             25.2676367853        8.0577370225      -27.0868480142  TIP3      4083            0.0000000000
     26050      4184  TIP3      OH2            10.8849478094       26.9973383721      -27.7286195888  TIP3      4084            0.0000000000
     26051      4184  TIP3      H1             10.0640284785       27.3189127615      -28.1661877036  TIP3      4084            0.0000000000
     26052      4184  TIP3      H2             10.9659528655       27.6833395895      -27.0327278871  TIP3      4084            0.0000000000
     26053      4185  TIP3      OH2            13.5045565845       26.8612240146      -28.5793185067  TIP3      4085            0.0000000000
     26054      4185  TIP3      H1             12.5575693687       27.0674238781      -28.4028230477  TIP3      4085            0.0000000000
     26055      4185  TIP3      H2             13.4879306299       26.7130093273      -29.5404212241  TIP3      4085            0.0000000000
     26056      4186  TIP3      OH2            18.2280522638       26.8361381620      -29.8681413341  TIP3      4086            0.0000000000
     26057      4186  TIP3      H1             17.3421667604       27.1700069032      -30.0891139847  TIP3      4086            0.0000000000
     26058      4186  TIP3      H2             18.4481324328       27.3049625620      -29.0338003828  TIP3      4086            0.0000000000
     26059      4187  TIP3      OH2            20.1417739119       25.2139992237      -28.5706154642  TIP3      4087            0.0000000000
     26060      4187  TIP3      H1             19.5320091689       25.6599085149      -29.1850767962  TIP3      4087            0.0000000000
     26061      4187  TIP3      H2             20.9251775294       25.7894523275      -28.7255043738  TIP3      4087            0.0000000000
     26062      4188  TIP3      OH2            22.2544018055       26.8211997480      -28.8366997222  TIP3      4088            0.0000000000
     26063      4188  TIP3      H1             22.6875109926       27.6941443095      -28.7837298420  TIP3      4088            0.0000000000
     26064      4188  TIP3      H2             22.7639446486       26.4418725673      -29.5990977033  TIP3      4088            0.0000000000
     26065      4189  TIP3      OH2            10.7954518726       25.4760911746      -30.9921929387  TIP3      4089            0.0000000000
     26066      4189  TIP3      H1             10.4266103100       24.8384720508      -30.3460169905  TIP3      4089            0.0000000000
     26067      4189  TIP3      H2             11.5245140045       24.9533333646      -31.3927050849  TIP3      4089            0.0000000000
     26068      4190  TIP3      OH2            12.9025961169       24.2803482477      -32.3020402246  TIP3      4090            0.0000000000
     26069      4190  TIP3      H1             12.7665920119       23.3938699722      -31.9066364557  TIP3      4090            0.0000000000
     26070      4190  TIP3      H2             13.7403864790       24.5200314230      -31.8438316796  TIP3      4090            0.0000000000
     26071      4191  TIP3      OH2            15.1068577900       24.7450513672      -30.8627114541  TIP3      4091            0.0000000000
     26072      4191  TIP3      H1             15.4001980312       23.8638061916      -31.1667145798  TIP3      4091            0.0000000000
     26073      4191  TIP3      H2             15.2735535998       24.6545670397      -29.9045527599  TIP3      4091            0.0000000000
     26074      4192  TIP3      OH2            18.5199940557       10.6729484480      -32.0656470690  TIP3      4092            0.0000000000
     26075      4192  TIP3      H1             17.7545419974       10.0978462785      -31.8446119182  TIP3      4092            0.0000000000
     26076      4192  TIP3      H2             19.0053627076       10.0909608297      -32.6648786445  TIP3      4092            0.0000000000
     26077      4193  TIP3      OH2            23.4597217245        8.6232870699      -32.5947970126  TIP3      4093            0.0000000000
     26078      4193  TIP3      H1             24.0861223819        9.2234567338      -33.0698989018  TIP3      4093            0.0000000000
     26079      4193  TIP3      H2             22.6070451638        8.9649843383      -32.9433449543  TIP3      4093            0.0000000000
     26080      4194  TIP3      OH2            25.1279592577        9.9717486591      -34.1877357542  TIP3      4094            0.0000000000
     26081      4194  TIP3      H1             25.6294958112        9.1384819466      -34.3800279053  TIP3      4094            0.0000000000
     26082      4194  TIP3      H2             25.8819482564       10.5901350961      -34.0406984477  TIP3      4094            0.0000000000
     26083      4195  TIP3      OH2            11.6401864700        9.0929492417      -34.6576479274  TIP3      4095            0.0000000000
     26084      4195  TIP3      H1             10.6742632595        9.1442761729      -34.4845426912  TIP3      4095            0.0000000000
     26085      4195  TIP3      H2             11.7899504865        8.1216595948      -34.6483428515  TIP3      4095            0.0000000000
     26086      4196  TIP3      OH2             9.6660888022        8.9335074597      -39.1239848232  TIP3      4096            0.0000000000
     26087      4196  TIP3      H1             10.0662821874        9.6690743684      -39.6438678914  TIP3      4096            0.0000000000
     26088      4196  TIP3      H2              9.1904291963        9.3874518683      -38.4188280897  TIP3      4096            0.0000000000
     26089      4197  TIP3      OH2            15.1303788518        8.7972171337      -34.6275220568  TIP3      4097            0.0000000000
     26090      4197  TIP3      H1             15.8668139299        9.0968916712      -35.1772662461  TIP3      4097            0.0000000000
     26091      4197  TIP3      H2             15.1611726796        9.4057253210      -33.8748851760  TIP3      4097            0.0000000000
     26092      4198  TIP3      OH2            20.9316079342        9.2615822659      -33.6611378995  TIP3      4098            0.0000000000
     26093      4198  TIP3      H1             20.6270563191        9.3403880357      -34.5757679214  TIP3      4098            0.0000000000
     26094      4198  TIP3      H2             20.5235417922        8.4110546429      -33.3643918953  TIP3      4098            0.0000000000
     26095      4199  TIP3      OH2            22.5436903287        8.8736724098      -37.6699468904  TIP3      4099            0.0000000000
     26096      4199  TIP3      H1             21.8210035220        9.1455491484      -38.2590606767  TIP3      4099            0.0000000000
     26097      4199  TIP3      H2             22.1472632919        8.0726407307      -37.2433987963  TIP3      4099            0.0000000000
     26098      4200  TIP3      OH2             9.2167930355       24.6539080654      -37.9307587904  TIP3      4100            0.0000000000
     26099      4200  TIP3      H1              8.3826326722       24.9426248320      -38.3477031425  TIP3      4100            0.0000000000
     26100      4200  TIP3      H2              9.7092873351       25.4804149411      -38.0146748286  TIP3      4100            0.0000000000
     26101      4201  TIP3      OH2            11.0417454145       10.9363168944      -40.4552479990  TIP3      4101            0.0000000000
     26102      4201  TIP3      H1             11.4555712765       10.7493974826      -41.3083769064  TIP3      4101            0.0000000000
     26103      4201  TIP3      H2             11.8105131728       11.1849745415      -39.9168850575  TIP3      4101            0.0000000000
     26104      4202  TIP3      OH2            16.7012355412       11.3977687895      -37.9514107588  TIP3      4102            0.0000000000
     26105      4202  TIP3      H1             17.1913440624       10.8827220703      -37.2897932544  TIP3      4102            0.0000000000
     26106      4202  TIP3      H2             16.8230517042       12.2886001207      -37.5817029985  TIP3      4102            0.0000000000
     26107      4203  TIP3      OH2            18.5687439416       26.9921821952      -39.3027207480  TIP3      4103            0.0000000000
     26108      4203  TIP3      H1             19.5134784264       26.7276978000      -39.3374730837  TIP3      4103            0.0000000000
     26109      4203  TIP3      H2             18.1982198867       26.2599564589      -39.8288880399  TIP3      4103            0.0000000000
     26110      4204  TIP3      OH2            25.4590977388       25.5934148879      -36.6648894260  TIP3      4104            0.0000000000
     26111      4204  TIP3      H1             25.3181681356       24.6993316926      -37.0563702707  TIP3      4104            0.0000000000
     26112      4204  TIP3      H2             25.0345790411       26.1501583511      -37.3536585440  TIP3      4104            0.0000000000
     26113      4205  TIP3      OH2            10.6851928961        9.6361286300      -24.9613326224  TIP3      4105            0.0000000000
     26114      4205  TIP3      H1             10.0165865201        8.9282191098      -24.9463491081  TIP3      4105            0.0000000000
     26115      4205  TIP3      H2             11.4742621170        9.1452492233      -25.2285286713  TIP3      4105            0.0000000000
     26116      4206  TIP3      OH2            11.1776541370       26.3933205577      -40.6234724060  TIP3      4106            0.0000000000
     26117      4206  TIP3      H1             10.8277576246       26.9592373078      -39.9139867130  TIP3      4106            0.0000000000
     26118      4206  TIP3      H2             11.7780578752       25.8123643556      -40.1619395482  TIP3      4106            0.0000000000
     26119      4207  TIP3      OH2            21.4432417124        8.5831910119      -23.4061255959  TIP3      4107            0.0000000000
     26120      4207  TIP3      H1             21.5457661385        9.2233627575      -22.6791654721  TIP3      4107            0.0000000000
     26121      4207  TIP3      H2             22.3419170522        8.5920469768      -23.8009364212  TIP3      4107            0.0000000000
     26122      4208  TIP3      OH2            24.2533452031       24.5886093251      -24.7443370593  TIP3      4108            0.0000000000
     26123      4208  TIP3      H1             23.5902375689       24.5114045642      -25.4693274190  TIP3      4108            0.0000000000
     26124      4208  TIP3      H2             24.1346041684       25.5266429352      -24.5204151959  TIP3      4108            0.0000000000
     26125      4209  TIP3      OH2            27.6105707784       15.2334497091      -35.8275086783  TIP3      4109            0.0000000000
     26126      4209  TIP3      H1             27.2508280518       16.1231669065      -35.6495781489  TIP3      4109            0.0000000000
     26127      4209  TIP3      H2             26.7927786818       14.7448318136      -35.9697429139  TIP3      4109            0.0000000000
     26128      4210  TIP3      OH2            28.1971233698       17.7007830520      -33.3356514955  TIP3      4110            0.0000000000
     26129      4210  TIP3      H1             28.2799200766       16.7165602574      -33.3761681283  TIP3      4110            0.0000000000
     26130      4210  TIP3      H2             29.1513063932       17.9428342039      -33.3666050503  TIP3      4110            0.0000000000
     26131      4211  TIP3      OH2            28.5009192586       15.0344655859      -33.0595367490  TIP3      4111            0.0000000000
     26132      4211  TIP3      H1             29.2881368889       15.1640545710      -32.5042158169  TIP3      4111            0.0000000000
     26133      4211  TIP3      H2             28.7974823672       14.3806097995      -33.7147525144  TIP3      4111            0.0000000000
     26134      4212  TIP3      OH2            27.8234602779       20.9350679534      -37.7261795339  TIP3      4112            0.0000000000
     26135      4212  TIP3      H1             28.1618364813       21.2794635921      -38.5700086041  TIP3      4112            0.0000000000
     26136      4212  TIP3      H2             28.0821262309       21.6446474379      -37.0994217553  TIP3      4112            0.0000000000
     26137      4213  TIP3      OH2            27.4114708592       19.8236647844      -27.7340052900  TIP3      4113            0.0000000000
     26138      4213  TIP3      H1             26.8898341529       19.8738401989      -28.5547600776  TIP3      4113            0.0000000000
     26139      4213  TIP3      H2             27.8630960223       18.9771016430      -27.8569244229  TIP3      4113            0.0000000000
     26140      4214  TIP3      OH2            27.1406160635       22.8118280287      -31.4814498616  TIP3      4114            0.0000000000
     26141      4214  TIP3      H1             28.0971838780       22.6113976749      -31.4501885355  TIP3      4114            0.0000000000
     26142      4214  TIP3      H2             27.0622052806       23.4669418095      -30.7717648764  TIP3      4114            0.0000000000
     26143      4215  TIP3      OH2            26.9197094918       11.9157899730      -33.9613313799  TIP3      4115            0.0000000000
     26144      4215  TIP3      H1             27.2136048478       12.1128928203      -33.0552244779  TIP3      4115            0.0000000000
     26145      4215  TIP3      H2             27.6491643763       12.3104133325      -34.4524296823  TIP3      4115            0.0000000000
     26146      4216  TIP3      OH2            27.2234002882       12.7245173861      -38.2940307829  TIP3      4116            0.0000000000
     26147      4216  TIP3      H1             27.8942215966       13.3795792615      -38.5546254101  TIP3      4116            0.0000000000
     26148      4216  TIP3      H2             26.5093632352       13.3312520863      -38.0090109298  TIP3      4116            0.0000000000
     26149      4217  TIP3      OH2            27.8719263417       16.7691705666      -27.2000259416  TIP3      4117            0.0000000000
     26150      4217  TIP3      H1             27.4541477889       16.6708870958      -26.3324490368  TIP3      4117            0.0000000000
     26151      4217  TIP3      H2             27.1025285944       16.9092019407      -27.7975091723  TIP3      4117            0.0000000000
     26152      4218  TIP3      OH2            29.1184594945       18.1082444292      -40.0904963571  TIP3      4118            0.0000000000
     26153      4218  TIP3      H1             29.1541867090       18.8375086785      -39.4529410325  TIP3      4118            0.0000000000
     26154      4218  TIP3      H2             28.1580040773       17.8824898476      -40.0715196027  TIP3      4118            0.0000000000
     26155      4219  TIP3      OH2            29.2503240413       23.6825605321      -28.7733883804  TIP3      4119            0.0000000000
     26156      4219  TIP3      H1             29.3620453412       22.9409522056      -28.1647229004  TIP3      4119            0.0000000000
     26157      4219  TIP3      H2             29.6035756023       24.4241182968      -28.2613529198  TIP3      4119            0.0000000000
     26158      4220  TIP3      OH2            29.0297226920       14.7476213836      -39.9229616992  TIP3      4120            0.0000000000
     26159      4220  TIP3      H1             28.9692220002       15.6939193172      -39.7200869862  TIP3      4120            0.0000000000
     26160      4220  TIP3      H2             28.4281560580       14.6520530668      -40.6740442554  TIP3      4120            0.0000000000
     26161      4221  TIP3      OH2            28.6472989220       23.2578970138      -36.3787474959  TIP3      4121            0.0000000000
     26162      4221  TIP3      H1             27.9950838100       23.7138135668      -35.8319316832  TIP3      4121            0.0000000000
     26163      4221  TIP3      H2             28.5854443578       23.7733181002      -37.2145130754  TIP3      4121            0.0000000000
     26164      4222  TIP3      OH2            28.4477724711       25.1935673795      -24.4497118287  TIP3      4122            0.0000000000
     26165      4222  TIP3      H1             27.7407189399       25.7331064507      -24.0577547438  TIP3      4122            0.0000000000
     26166      4222  TIP3      H2             27.9236694778       24.4899271133      -24.8988401263  TIP3      4122            0.0000000000
     26167      4223  TIP3      OH2            28.0412033557       19.3669608026      -23.6498596513  TIP3      4123            0.0000000000
     26168      4223  TIP3      H1             28.1224263287       18.5354046792      -24.1568954771  TIP3      4123            0.0000000000
     26169      4223  TIP3      H2             27.5014001998       19.9439703103      -24.2308408421  TIP3      4123            0.0000000000
     26170      4224  TIP3      OH2            28.8867883381       16.8560911738      -24.4112307525  TIP3      4124            0.0000000000
     26171      4224  TIP3      H1             28.8592430130       15.9254571304      -24.6817797198  TIP3      4124            0.0000000000
     26172      4224  TIP3      H2             28.8050526854       16.8194851856      -23.4450493595  TIP3      4124            0.0000000000
     26173      4225  TIP3      OH2            28.0521564369       21.6759779280      -40.4081864375  TIP3      4125            0.0000000000
     26174      4225  TIP3      H1             29.0040397955       21.7365634225      -40.1578473133  TIP3      4125            0.0000000000
     26175      4225  TIP3      H2             28.2091770257       21.4748785576      -41.3389880301  TIP3      4125            0.0000000000
     26176      4226  TIP3      OH2            27.0945024199       26.4307113988      -34.8500599117  TIP3      4126            0.0000000000
     26177      4226  TIP3      H1             26.4428189728       25.9941840880      -35.4532091015  TIP3      4126            0.0000000000
     26178      4226  TIP3      H2             27.2966242240       25.6852355674      -34.2377879913  TIP3      4126            0.0000000000
     26179      4227  TIP3      OH2            27.9841940275       24.5928530183      -33.2457127412  TIP3      4127            0.0000000000
     26180      4227  TIP3      H1             27.4211505168       23.8732252080      -32.8893820061  TIP3      4127            0.0000000000
     26181      4227  TIP3      H2             28.3303591938       25.0041934253      -32.4302393486  TIP3      4127            0.0000000000
     26182      4228  TIP3      OH2            27.7942855774       18.4135083260      -30.7412183542  TIP3      4128            0.0000000000
     26183      4228  TIP3      H1             27.8726362758       18.0736331597      -31.6566910661  TIP3      4128            0.0000000000
     26184      4228  TIP3      H2             28.7266522078       18.2709530947      -30.4363458772  TIP3      4128            0.0000000000
     26185      4229  TIP3      OH2            27.1228354769       13.6169651435      -25.0643122415  TIP3      4129            0.0000000000
     26186      4229  TIP3      H1             28.0964880528       13.6073305785      -25.1512090304  TIP3      4129            0.0000000000
     26187      4229  TIP3      H2             26.8655914608       12.6829640315      -25.2407319381  TIP3      4129            0.0000000000
     26188      4230  TIP3      OH2            28.2979531422       11.7370754149      -31.2770408867  TIP3      4130            0.0000000000
     26189      4230  TIP3      H1             28.7263305830       10.9767743575      -31.6872876883  TIP3      4130            0.0000000000
     26190      4230  TIP3      H2             29.0627291379       12.3188211924      -31.1253791791  TIP3      4130            0.0000000000
     26191      4231  TIP3      OH2            26.7482768552       14.8805391256      -31.0316819518  TIP3      4131            0.0000000000
     26192      4231  TIP3      H1             27.1248828727       15.0057462513      -31.9269302056  TIP3      4131            0.0000000000
     26193      4231  TIP3      H2             27.5634142607       14.9708560317      -30.5091420332  TIP3      4131            0.0000000000
     26194      4232  TIP3      OH2            27.2384169125       10.3660330447      -36.9144131151  TIP3      4132            0.0000000000
     26195      4232  TIP3      H1             26.3186327859       10.1630079962      -36.6748703154  TIP3      4132            0.0000000000
     26196      4232  TIP3      H2             27.1588604902       11.2569573756      -37.3211723754  TIP3      4132            0.0000000000
     26197      4233  TIP3      OH2            27.0437824209        9.7784723817      -28.5231126368  TIP3      4133            0.0000000000
     26198      4233  TIP3      H1             26.4135428458        9.3162836244      -27.9346604261  TIP3      4133            0.0000000000
     26199      4233  TIP3      H2             26.5715772460       10.5900085813      -28.7747840379  TIP3      4133            0.0000000000
     26200      4234  TIP3      OH2           -29.7871685914       25.8904190830      -30.7696966672  TIP3      4134            0.0000000000
     26201      4234  TIP3      H1            -29.8021968278       25.1735112959      -30.1140442282  TIP3      4134            0.0000000000
     26202      4234  TIP3      H2            -28.8439290789       26.1575081893      -30.7572783427  TIP3      4134            0.0000000000
     26203      4235  TIP3      OH2            28.4069943807        8.9242262918      -38.9410947946  TIP3      4135            0.0000000000
     26204      4235  TIP3      H1             29.3707129466        8.7808627115      -38.8670089595  TIP3      4135            0.0000000000
     26205      4235  TIP3      H2             28.2092505856        9.3601776323      -38.0849646423  TIP3      4135            0.0000000000
     26206      4236  TIP3      OH2            28.2854696012       25.0817376719      -38.2464583263  TIP3      4136            0.0000000000
     26207      4236  TIP3      H1             27.4280852027       25.1428008673      -38.7058390516  TIP3      4136            0.0000000000
     26208      4236  TIP3      H2             28.4452388420       26.0097625669      -37.9970003857  TIP3      4136            0.0000000000
     26209      4237  TIP3      OH2           -13.9658319161      -29.9271379019      -28.7790975418  TIP3      4137            0.0000000000
     26210      4237  TIP3      H1            -14.7184718456      -29.3203650507      -28.8816670895  TIP3      4137            0.0000000000
     26211      4237  TIP3      H2            -13.6227657094      -29.8762908896      -29.6952756365  TIP3      4137            0.0000000000
     26212      4238  TIP3      OH2           -21.5219167307       27.9022792702      -31.4868539656  TIP3      4138            0.0000000000
     26213      4238  TIP3      H1            -21.5806656035       27.0796644266      -32.0050594981  TIP3      4138            0.0000000000
     26214      4238  TIP3      H2            -22.4868788952       28.1243275805      -31.4396682390  TIP3      4138            0.0000000000
     26215      4239  TIP3      OH2           -13.1565059607       27.3625411959      -38.4514993398  TIP3      4139            0.0000000000
     26216      4239  TIP3      H1            -14.0858688176       27.6307316124      -38.3463955064  TIP3      4139            0.0000000000
     26217      4239  TIP3      H2            -12.7273440522       28.2489331712      -38.4219125479  TIP3      4139            0.0000000000
     26218      4240  TIP3      OH2           -23.9978709910       28.9197887982      -31.0636662864  TIP3      4140            0.0000000000
     26219      4240  TIP3      H1            -24.9733820593       28.8946807658      -31.1226224454  TIP3      4140            0.0000000000
     26220      4240  TIP3      H2            -23.8413023396       29.8757344386      -31.2087549798  TIP3      4140            0.0000000000
     26221      4241  TIP3      OH2           -19.0663461859       28.1048132745      -27.7495352434  TIP3      4141            0.0000000000
     26222      4241  TIP3      H1            -18.5448188041       27.7081530020      -27.0115234854  TIP3      4141            0.0000000000
     26223      4241  TIP3      H2            -19.9870095133       28.0026949631      -27.4508720275  TIP3      4141            0.0000000000
     26224      4242  TIP3      OH2           -19.6507297309       29.1596965574      -35.1772271080  TIP3      4142            0.0000000000
     26225      4242  TIP3      H1            -20.1135073768       30.0007165880      -35.0100087302  TIP3      4142            0.0000000000
     26226      4242  TIP3      H2            -19.1408034907       29.4224873611      -35.9507457316  TIP3      4142            0.0000000000
     26227      4243  TIP3      OH2           -26.6574903486       28.3579354094      -31.6407725856  TIP3      4143            0.0000000000
     26228      4243  TIP3      H1            -26.6285920553       28.1560486393      -32.5997735433  TIP3      4143            0.0000000000
     26229      4243  TIP3      H2            -27.0220624316       27.5085430585      -31.2982402246  TIP3      4143            0.0000000000
     26230      4244  TIP3      OH2           -21.8656048096       27.6161413599      -27.7956889685  TIP3      4144            0.0000000000
     26231      4244  TIP3      H1            -22.0330889159       28.5363814997      -28.0714342250  TIP3      4144            0.0000000000
     26232      4244  TIP3      H2            -22.6340923110       27.1703826352      -28.1786648684  TIP3      4144            0.0000000000
     26233      4245  TIP3      OH2           -21.7906619103       27.7215577315      -25.0819628343  TIP3      4145            0.0000000000
     26234      4245  TIP3      H1            -21.2275901473       26.9189867717      -25.0538180957  TIP3      4145            0.0000000000
     26235      4245  TIP3      H2            -21.9528257513       27.7320491169      -26.0517283644  TIP3      4145            0.0000000000
     26236      4246  TIP3      OH2           -22.0769747007       29.1771035135      -22.7227711370  TIP3      4146            0.0000000000
     26237      4246  TIP3      H1            -21.8718798576       28.4266538594      -23.3026529052  TIP3      4146            0.0000000000
     26238      4246  TIP3      H2            -22.0023616460       29.9060759331      -23.3720032728  TIP3      4146            0.0000000000
     26239      4247  TIP3      OH2           -11.2437112867       27.6073423360      -23.6176296856  TIP3      4147            0.0000000000
     26240      4247  TIP3      H1            -10.4620274624       27.0452644212      -23.7683849890  TIP3      4147            0.0000000000
     26241      4247  TIP3      H2            -11.1808701007       28.2049785413      -24.3716852588  TIP3      4147            0.0000000000
     26242      4248  TIP3      OH2            29.8644226604       28.0411656949      -28.1500635002  TIP3      4148            0.0000000000
     26243      4248  TIP3      H1             28.8918603871       28.1892996506      -28.1493464569  TIP3      4148            0.0000000000
     26244      4248  TIP3      H2             30.2039152462       28.9481469375      -28.0314839157  TIP3      4148            0.0000000000
     26245      4249  TIP3      OH2           -12.4670480371       27.7607177156      -26.8534748075  TIP3      4149            0.0000000000
     26246      4249  TIP3      H1            -12.9257132755       28.1447180274      -27.6357822593  TIP3      4149            0.0000000000
     26247      4249  TIP3      H2            -12.1982982146       26.8778596468      -27.2196721114  TIP3      4149            0.0000000000
     26248      4250  TIP3      OH2           -18.6087168064       28.8819877667      -32.5560953435  TIP3      4150            0.0000000000
     26249      4250  TIP3      H1            -19.2732202050       28.6953652546      -31.8853598645  TIP3      4150            0.0000000000
     26250      4250  TIP3      H2            -19.0955670823       28.6328608433      -33.3692699812  TIP3      4150            0.0000000000
     26251      4251  TIP3      OH2           -14.1873961298       27.7373946237      -32.6040718413  TIP3      4151            0.0000000000
     26252      4251  TIP3      H1            -13.4546249645       28.0304739438      -33.1909244545  TIP3      4151            0.0000000000
     26253      4251  TIP3      H2            -14.9441844567       28.0799745973      -33.1161178102  TIP3      4151            0.0000000000
     26254      4252  TIP3      OH2           -12.2682335735       28.3780533219      -34.3318965978  TIP3      4152            0.0000000000
     26255      4252  TIP3      H1            -11.5125607631       28.0386010601      -34.8535090911  TIP3      4152            0.0000000000
     26256      4252  TIP3      H2            -12.1116866393       29.3455226218      -34.2817438773  TIP3      4152            0.0000000000
     26257      4253  TIP3      OH2           -26.6236040818       27.9417444247      -34.6276905613  TIP3      4153            0.0000000000
     26258      4253  TIP3      H1            -27.4697425336       27.7100808588      -35.0490754695  TIP3      4153            0.0000000000
     26259      4253  TIP3      H2            -26.1638489735       27.0800361571      -34.7119050703  TIP3      4153            0.0000000000
     26260      4254  TIP3      OH2           -27.3146702278       27.8656576941      -38.6977232190  TIP3      4154            0.0000000000
     26261      4254  TIP3      H1            -27.3251247943       28.8287042600      -38.8629285088  TIP3      4154            0.0000000000
     26262      4254  TIP3      H2            -28.2128813408       27.7648223053      -38.3570271379  TIP3      4154            0.0000000000
     26263      4255  TIP3      OH2           -22.5317378299       27.6519983026      -34.5585925974  TIP3      4155            0.0000000000
     26264      4255  TIP3      H1            -22.3208937920       28.1622782924      -35.3457322713  TIP3      4155            0.0000000000
     26265      4255  TIP3      H2            -22.7303847202       28.3899270370      -33.9652437254  TIP3      4155            0.0000000000
     26266      4256  TIP3      OH2           -16.5263933671       27.6932680946      -34.0094424896  TIP3      4156            0.0000000000
     26267      4256  TIP3      H1            -16.9283354053       27.0990965094      -34.6541008623  TIP3      4156            0.0000000000
     26268      4256  TIP3      H2            -17.0319794112       27.4585806226      -33.1953487829  TIP3      4156            0.0000000000
     26269      4257  TIP3      OH2           -15.7384111810       27.9566832240      -37.8458233889  TIP3      4157            0.0000000000
     26270      4257  TIP3      H1            -16.0306345152       27.6460134109      -38.7223319877  TIP3      4157            0.0000000000
     26271      4257  TIP3      H2            -16.0706482099       27.2096045984      -37.2910037202  TIP3      4157            0.0000000000
     26272      4258  TIP3      OH2           -27.1420019077       28.2501183150      -25.5157125644  TIP3      4158            0.0000000000
     26273      4258  TIP3      H1            -27.7973100089       27.6851003381      -25.0645171074  TIP3      4158            0.0000000000
     26274      4258  TIP3      H2            -26.4829522974       28.3055697054      -24.7943186217  TIP3      4158            0.0000000000
     26275      4259  TIP3      OH2           -25.1477043262       28.1662583617      -23.4841050016  TIP3      4159            0.0000000000
     26276      4259  TIP3      H1            -24.2328009493       27.9412614503      -23.6978877827  TIP3      4159            0.0000000000
     26277      4259  TIP3      H2            -25.2930400087       27.6998087190      -22.6557055685  TIP3      4159            0.0000000000
     26278      4260  TIP3      OH2           -16.1761446449       27.0729299115      -23.5047420546  TIP3      4160            0.0000000000
     26279      4260  TIP3      H1            -16.3259272305       26.1412350937      -23.3018752813  TIP3      4160            0.0000000000
     26280      4260  TIP3      H2            -15.2538635987       27.0440857165      -23.8542078693  TIP3      4160            0.0000000000
     26281      4261  TIP3      OH2             4.8187322175      -30.0867338854      -29.0097121110  TIP3      4161            0.0000000000
     26282      4261  TIP3      H1              4.2840016694      -29.3489142181      -28.6726491032  TIP3      4161            0.0000000000
     26283      4261  TIP3      H2              5.2167838420      -29.7254618850      -29.8290386375  TIP3      4161            0.0000000000
     26284      4262  TIP3      OH2            -2.6747965989       27.7419915629      -31.3800352242  TIP3      4162            0.0000000000
     26285      4262  TIP3      H1             -2.8835402155       26.8792755155      -31.7664135733  TIP3      4162            0.0000000000
     26286      4262  TIP3      H2             -3.5768118929       28.1420981334      -31.2816312103  TIP3      4162            0.0000000000
     26287      4263  TIP3      OH2             5.7422777435       27.3196207651      -38.5173619004  TIP3      4163            0.0000000000
     26288      4263  TIP3      H1              4.8983247312       27.5636529284      -38.9222101258  TIP3      4163            0.0000000000
     26289      4263  TIP3      H2              6.0660243011       28.2267662788      -38.3177549085  TIP3      4163            0.0000000000
     26290      4264  TIP3      OH2            -5.0466580814       28.9412209711      -30.9997699214  TIP3      4164            0.0000000000
     26291      4264  TIP3      H1             -5.9364364451       28.5966587158      -31.2292923317  TIP3      4164            0.0000000000
     26292      4264  TIP3      H2             -5.1723016211       29.9023809647      -31.1508995001  TIP3      4164            0.0000000000
     26293      4265  TIP3      OH2            -0.4304198855       28.0819560247      -27.2653335226  TIP3      4165            0.0000000000
     26294      4265  TIP3      H1             -0.1123212227       27.8574859435      -26.3691509152  TIP3      4165            0.0000000000
     26295      4265  TIP3      H2             -1.4096587165       28.0087956757      -27.1806727122  TIP3      4165            0.0000000000
     26296      4266  TIP3      OH2            -0.3187757163      -29.7403079770      -35.5221989959  TIP3      4166            0.0000000000
     26297      4266  TIP3      H1             -0.8097381950      -29.4042491929      -34.7513669300  TIP3      4166            0.0000000000
     26298      4266  TIP3      H2             -0.2202931047      -28.8954954810      -35.9955034289  TIP3      4166            0.0000000000
     26299      4267  TIP3      OH2            -7.5138019159       28.0613762304      -31.6453784983  TIP3      4167            0.0000000000
     26300      4267  TIP3      H1             -7.5697935340       27.9813332807      -32.6247816076  TIP3      4167            0.0000000000
     26301      4267  TIP3      H2             -7.8416477413       27.1672872590      -31.3714435214  TIP3      4167            0.0000000000
     26302      4268  TIP3      OH2            -2.9758463757       27.8165565740      -27.7492144237  TIP3      4168            0.0000000000
     26303      4268  TIP3      H1             -3.0711048110       28.7882761416      -27.8678957546  TIP3      4168            0.0000000000
     26304      4268  TIP3      H2             -3.8117705340       27.5106527686      -28.1561328740  TIP3      4168            0.0000000000
     26305      4269  TIP3      OH2            -3.4904831966       27.4121194203      -25.0791615689  TIP3      4169            0.0000000000
     26306      4269  TIP3      H1             -2.6996555673       26.9509566165      -24.7567484561  TIP3      4169            0.0000000000
     26307      4269  TIP3      H2             -3.3636289442       27.3139620562      -26.0448838034  TIP3      4169            0.0000000000
     26308      4270  TIP3      OH2           -10.2315337847       28.2749809297      -28.5677739179  TIP3      4170            0.0000000000
     26309      4270  TIP3      H1            -10.8459088815       28.2397279430      -27.8099284710  TIP3      4170            0.0000000000
     26310      4270  TIP3      H2            -10.1388787088       29.2489675993      -28.7018246886  TIP3      4170            0.0000000000
     26311      4271  TIP3      OH2             6.4888455931       27.6157028809      -27.3636993502  TIP3      4171            0.0000000000
     26312      4271  TIP3      H1              5.7974404528       27.8418822615      -28.0200093298  TIP3      4171            0.0000000000
     26313      4271  TIP3      H2              6.6567230969       26.6488428032      -27.5313653830  TIP3      4171            0.0000000000
     26314      4272  TIP3      OH2            -0.2553653902       28.8455538729      -32.7435833239  TIP3      4172            0.0000000000
     26315      4272  TIP3      H1             -0.4254478384       28.3527596566      -31.9334727746  TIP3      4172            0.0000000000
     26316      4272  TIP3      H2             -0.1023418365       28.1343555472      -33.3851019864  TIP3      4172            0.0000000000
     26317      4273  TIP3      OH2             4.5324707196       27.6557345358      -32.4070449905  TIP3      4173            0.0000000000
     26318      4273  TIP3      H1              5.3002423286       27.8764168912      -32.9806673551  TIP3      4173            0.0000000000
     26319      4273  TIP3      H2              3.9817692862       28.4437219131      -32.5599720596  TIP3      4173            0.0000000000
     26320      4274  TIP3      OH2             6.5638386774       28.2921585514      -34.1918413830  TIP3      4174            0.0000000000
     26321      4274  TIP3      H1              7.2902602708       27.9652829079      -34.7628020046  TIP3      4174            0.0000000000
     26322      4274  TIP3      H2              6.8873194158       29.1736099553      -33.9252903984  TIP3      4174            0.0000000000
     26323      4275  TIP3      OH2            -7.9189645244       27.7730000728      -34.2939739197  TIP3      4175            0.0000000000
     26324      4275  TIP3      H1             -8.7622370663       27.6037675668      -34.7670003861  TIP3      4175            0.0000000000
     26325      4275  TIP3      H2             -7.4189938281       26.9422055501      -34.4859375851  TIP3      4175            0.0000000000
     26326      4276  TIP3      OH2            -8.8162628803       27.9455730051      -38.3467462825  TIP3      4176            0.0000000000
     26327      4276  TIP3      H1             -8.9576021284       28.9151779873      -38.4027821276  TIP3      4176            0.0000000000
     26328      4276  TIP3      H2             -9.6043476530       27.6479803811      -37.8697558317  TIP3      4176            0.0000000000
     26329      4277  TIP3      OH2            -3.5549821250       27.6265210808      -34.3661145164  TIP3      4177            0.0000000000
     26330      4277  TIP3      H1             -3.2952190779       28.2337158913      -35.0725395470  TIP3      4177            0.0000000000
     26331      4277  TIP3      H2             -3.2787746451       28.1046672543      -33.5777723021  TIP3      4177            0.0000000000
     26332      4278  TIP3      OH2             2.4300757560       27.8043611439      -34.3971892814  TIP3      4178            0.0000000000
     26333      4278  TIP3      H1              2.2380386477       27.5318963491      -35.3055659619  TIP3      4178            0.0000000000
     26334      4278  TIP3      H2              1.8974419587       27.1834782515      -33.8409521409  TIP3      4178            0.0000000000
     26335      4279  TIP3      OH2             3.2656111970       28.2608166728      -37.5583073606  TIP3      4179            0.0000000000
     26336      4279  TIP3      H1              3.1857959105       28.5963642742      -38.4832682060  TIP3      4179            0.0000000000
     26337      4279  TIP3      H2              3.0470759191       27.3169772895      -37.6118525637  TIP3      4179            0.0000000000
     26338      4280  TIP3      OH2            -8.2302350081       28.7313036629      -25.2483898344  TIP3      4180            0.0000000000
     26339      4280  TIP3      H1             -8.4717993570       27.8246055746      -25.0010497426  TIP3      4180            0.0000000000
     26340      4280  TIP3      H2             -7.5022021168       28.9277254015      -24.6154173801  TIP3      4180            0.0000000000
     26341      4281  TIP3      OH2            -6.2206533437       28.2041542270      -23.2947828924  TIP3      4181            0.0000000000
     26342      4281  TIP3      H1             -5.5298636719       27.6316851626      -23.6704113760  TIP3      4181            0.0000000000
     26343      4281  TIP3      H2             -6.6711159215       27.5952617736      -22.6726192203  TIP3      4181            0.0000000000
     26344      4282  TIP3      OH2            23.8620272224      -30.0191079578      -28.7257839133  TIP3      4182            0.0000000000
     26345      4282  TIP3      H1             23.1972281536      -29.3119503774      -28.8328233898  TIP3      4182            0.0000000000
     26346      4282  TIP3      H2             24.5305464868      -29.7379042634      -29.3784078508  TIP3      4182            0.0000000000
     26347      4283  TIP3      OH2            16.1334629605       27.9115516177      -31.4873402983  TIP3      4183            0.0000000000
     26348      4283  TIP3      H1             16.0214043140       27.0181834230      -31.8624828929  TIP3      4183            0.0000000000
     26349      4283  TIP3      H2             15.1884197106       28.1579240267      -31.2900129290  TIP3      4183            0.0000000000
     26350      4284  TIP3      OH2            24.5962666272       27.3816570932      -38.5698010942  TIP3      4184            0.0000000000
     26351      4284  TIP3      H1             23.6663624255       27.6847054946      -38.5306204954  TIP3      4184            0.0000000000
     26352      4284  TIP3      H2             25.0129569439       28.2708848563      -38.5302643569  TIP3      4184            0.0000000000
     26353      4285  TIP3      OH2            13.7799891406       28.9929122485      -31.0350535175  TIP3      4185            0.0000000000
     26354      4285  TIP3      H1             12.8419873425       28.7435021078      -31.1743380732  TIP3      4185            0.0000000000
     26355      4285  TIP3      H2             13.7149227717       29.9752323186      -31.0270553428  TIP3      4185            0.0000000000
     26356      4286  TIP3      OH2            18.5815235815       28.1050259577      -27.5097370133  TIP3      4186            0.0000000000
     26357      4286  TIP3      H1             18.9104786979       27.6696228625      -26.6884286762  TIP3      4186            0.0000000000
     26358      4286  TIP3      H2             17.6055193487       28.0409584587      -27.4158635880  TIP3      4186            0.0000000000
     26359      4287  TIP3      OH2            18.3910520091       29.0353883368      -35.4249905602  TIP3      4187            0.0000000000
     26360      4287  TIP3      H1             17.5851926472       29.3063787571      -34.9428409822  TIP3      4187            0.0000000000
     26361      4287  TIP3      H2             18.5373573386       29.8777904022      -35.8931512303  TIP3      4187            0.0000000000
     26362      4288  TIP3      OH2            11.3235045092       28.0443296169      -31.5987399798  TIP3      4188            0.0000000000
     26363      4288  TIP3      H1             11.2785336396       27.9768000695      -32.5734521330  TIP3      4188            0.0000000000
     26364      4288  TIP3      H2             11.0830514013       27.1206603938      -31.3447797272  TIP3      4188            0.0000000000
     26365      4289  TIP3      OH2            15.9597706283       27.8907762278      -27.8160027688  TIP3      4189            0.0000000000
     26366      4289  TIP3      H1             15.7629547823       28.8323904513      -27.9956995345  TIP3      4189            0.0000000000
     26367      4289  TIP3      H2             15.1646786599       27.4622394397      -28.1917692303  TIP3      4189            0.0000000000
     26368      4290  TIP3      OH2            16.0480303078       27.5814520949      -25.1941816496  TIP3      4190            0.0000000000
     26369      4290  TIP3      H1             16.6977438247       26.8827540043      -24.9924835638  TIP3      4190            0.0000000000
     26370      4290  TIP3      H2             15.9294045973       27.4557377787      -26.1653501536  TIP3      4190            0.0000000000
     26371      4291  TIP3      OH2            15.1250587037       28.8899683239      -22.9598490067  TIP3      4191            0.0000000000
     26372      4291  TIP3      H1             15.7206317374       28.3093874442      -23.4793848360  TIP3      4191            0.0000000000
     26373      4291  TIP3      H2             15.6137404095       29.7425237530      -22.9260265474  TIP3      4191            0.0000000000
     26374      4292  TIP3      OH2            26.7502534303       27.3475933807      -23.0862229417  TIP3      4192            0.0000000000
     26375      4292  TIP3      H1             26.6305651822       27.8810488257      -23.8868255927  TIP3      4192            0.0000000000
     26376      4292  TIP3      H2             27.1746042450       28.0081372608      -22.5010134436  TIP3      4192            0.0000000000
     26377      4293  TIP3      OH2             8.7780757009       28.2954452152      -28.6148774385  TIP3      4193            0.0000000000
     26378      4293  TIP3      H1              7.9633697121       28.1619431746      -28.0808752259  TIP3      4193            0.0000000000
     26379      4293  TIP3      H2              8.6158701810       29.1900823531      -29.0026355175  TIP3      4193            0.0000000000
     26380      4294  TIP3      OH2            25.0879045938       27.5080259823      -26.7781555834  TIP3      4194            0.0000000000
     26381      4294  TIP3      H1             24.5461255797       27.8714162325      -27.5057409860  TIP3      4194            0.0000000000
     26382      4294  TIP3      H2             25.3292719496       26.6273949253      -27.1699904223  TIP3      4194            0.0000000000
     26383      4295  TIP3      OH2            19.0997331933       29.0001946077      -32.7869521496  TIP3      4195            0.0000000000
     26384      4295  TIP3      H1             18.6280245767       28.5247797869      -32.0830937460  TIP3      4195            0.0000000000
     26385      4295  TIP3      H2             18.8499662661       28.5297596691      -33.6091704240  TIP3      4195            0.0000000000
     26386      4296  TIP3      OH2            23.8275018782       27.7332597490      -32.6083538827  TIP3      4196            0.0000000000
     26387      4296  TIP3      H1             24.3699794469       28.1993414758      -33.2812071745  TIP3      4196            0.0000000000
     26388      4296  TIP3      H2             22.9893392795       28.2136739476      -32.6971944429  TIP3      4196            0.0000000000
     26389      4297  TIP3      OH2            25.6094133202       28.5868404381      -34.5005368523  TIP3      4197            0.0000000000
     26390      4297  TIP3      H1             26.0130770902       27.7614398403      -34.8491430956  TIP3      4197            0.0000000000
     26391      4297  TIP3      H2             26.2679880124       28.8392953335      -33.8358501525  TIP3      4197            0.0000000000
     26392      4298  TIP3      OH2            10.8399066685       27.7591159695      -34.3149877955  TIP3      4198            0.0000000000
     26393      4298  TIP3      H1              9.9819244991       27.6157669579      -34.7724583955  TIP3      4198            0.0000000000
     26394      4298  TIP3      H2             11.3052760222       26.9168140242      -34.5234230721  TIP3      4198            0.0000000000
     26395      4299  TIP3      OH2             9.9445675252       27.9277936030      -38.4670615320  TIP3      4199            0.0000000000
     26396      4299  TIP3      H1              9.8269827387       28.9132399873      -38.5589251269  TIP3      4199            0.0000000000
     26397      4299  TIP3      H2              9.1107906261       27.6650841404      -38.0499132496  TIP3      4199            0.0000000000
     26398      4300  TIP3      OH2            15.2958382283       27.5865895782      -34.3119422521  TIP3      4200            0.0000000000
     26399      4300  TIP3      H1             15.5723390276       28.2592584693      -34.9528169498  TIP3      4200            0.0000000000
     26400      4300  TIP3      H2             15.3902240400       28.0660845676      -33.4782894056  TIP3      4200            0.0000000000
     26401      4301  TIP3      OH2            21.3236415417       27.8590666931      -34.0436764394  TIP3      4201            0.0000000000
     26402      4301  TIP3      H1             21.1078350924       27.4838203639      -34.9002911064  TIP3      4201            0.0000000000
     26403      4301  TIP3      H2             20.7231523325       27.3423697662      -33.4602522349  TIP3      4201            0.0000000000
     26404      4302  TIP3      OH2            21.9669625703       28.0506188371      -38.1002311511  TIP3      4202            0.0000000000
     26405      4302  TIP3      H1             21.6087400313       27.6994693437      -38.9398665396  TIP3      4202            0.0000000000
     26406      4302  TIP3      H2             21.6927415171       27.3254446496      -37.4958300126  TIP3      4202            0.0000000000
     26407      4303  TIP3      OH2            10.6472644411       28.6703563762      -25.2638100067  TIP3      4203            0.0000000000
     26408      4303  TIP3      H1             10.1613915111       27.8497689409      -25.0368533625  TIP3      4203            0.0000000000
     26409      4303  TIP3      H2             11.4538586265       28.5528114636      -24.7090378586  TIP3      4203            0.0000000000
     26410      4304  TIP3      OH2            12.6137938534       28.2260600851      -23.4969872836  TIP3      4204            0.0000000000
     26411      4304  TIP3      H1             13.5925296448       28.2781491364      -23.4072706772  TIP3      4204            0.0000000000
     26412      4304  TIP3      H2             12.4428256590       27.3254360491      -23.1964614170  TIP3      4204            0.0000000000
     26413      4305  TIP3      OH2            21.5917710538       26.9719828782      -23.2508889879  TIP3      4205            0.0000000000
     26414      4305  TIP3      H1             21.7623184809       26.2369272132      -22.6001981063  TIP3      4205            0.0000000000
     26415      4305  TIP3      H2             22.4695639083       26.9642578155      -23.6934121993  TIP3      4205            0.0000000000
     26416      4306  TIP3      OH2            27.2622346556       28.3804648279      -28.3368683987  TIP3      4206            0.0000000000
     26417      4306  TIP3      H1             26.5947207884       27.9832654817      -27.7466977657  TIP3      4206            0.0000000000
     26418      4306  TIP3      H2             27.0022253932       29.3357334704      -28.3049793422  TIP3      4206            0.0000000000
     26419      4307  TIP3      OH2            28.3818557892       27.9326148297      -38.3002481704  TIP3      4207            0.0000000000
     26420      4307  TIP3      H1             28.3682189549       28.8851117024      -38.5633765026  TIP3      4207            0.0000000000
     26421      4307  TIP3      H2             27.7011499337       27.8766494200      -37.6183612850  TIP3      4207            0.0000000000
     26422      4308  TIP3      OH2           -15.2180207103      -18.3267721807      -22.1214178319  TIP3      4208            0.0000000000
     26423      4308  TIP3      H1            -15.4284824522      -18.7961666951      -22.9532029909  TIP3      4208            0.0000000000
     26424      4308  TIP3      H2            -15.2291004033      -19.0382727444      -21.4533818864  TIP3      4208            0.0000000000
     26425      4309  TIP3      OH2           -14.8875812375      -15.5648300872      -21.1871824297  TIP3      4209            0.0000000000
     26426      4309  TIP3      H1            -14.4376068069      -16.0614915011      -20.4870706843  TIP3      4209            0.0000000000
     26427      4309  TIP3      H2            -15.6843069288      -16.0822970890      -21.3484253509  TIP3      4209            0.0000000000
     26428      4310  TIP3      OH2           -21.3227557807      -15.1703037815      -22.7903828432  TIP3      4210            0.0000000000
     26429      4310  TIP3      H1            -22.0999677730      -15.3496321750      -23.3431090110  TIP3      4210            0.0000000000
     26430      4310  TIP3      H2            -21.6549655731      -15.3791574899      -21.8855736859  TIP3      4210            0.0000000000
     26431      4311  TIP3      OH2           -27.6046499486      -23.0250404274      -22.5397778767  TIP3      4211            0.0000000000
     26432      4311  TIP3      H1            -27.2383976558      -23.7024980290      -21.9455804442  TIP3      4211            0.0000000000
     26433      4311  TIP3      H2            -28.5613048356      -23.1398089147      -22.3631993317  TIP3      4211            0.0000000000
     26434      4312  TIP3      OH2           -19.4273753971      -13.0323498253      -22.8016711915  TIP3      4212            0.0000000000
     26435      4312  TIP3      H1            -19.8926711573      -13.8224451890      -22.4606061551  TIP3      4212            0.0000000000
     26436      4312  TIP3      H2            -18.7230211428      -13.4601876314      -23.3369185322  TIP3      4212            0.0000000000
     26437      4313  TIP3      OH2           -14.8552907868      -13.4999351401      -22.8067374018  TIP3      4213            0.0000000000
     26438      4313  TIP3      H1            -14.6707893664      -14.0435232422      -22.0043155943  TIP3      4213            0.0000000000
     26439      4313  TIP3      H2            -14.1443893768      -13.7509006970      -23.4198816864  TIP3      4213            0.0000000000
     26440      4314  TIP3      OH2           -24.0167190367      -17.6828584497      -23.1393408645  TIP3      4214            0.0000000000
     26441      4314  TIP3      H1            -23.7145389001      -18.2246945012      -22.3968798800  TIP3      4214            0.0000000000
     26442      4314  TIP3      H2            -23.2643884613      -17.8058080292      -23.7508617775  TIP3      4214            0.0000000000
     26443      4315  TIP3      OH2           -18.8204775597      -16.1306922036      -23.0901787370  TIP3      4215            0.0000000000
     26444      4315  TIP3      H1            -19.7916206284      -16.0186289098      -22.9864274625  TIP3      4215            0.0000000000
     26445      4315  TIP3      H2            -18.7097455945      -17.1009534181      -23.1172166454  TIP3      4215            0.0000000000
     26446      4316  TIP3      OH2           -22.1477463891      -21.0721041815      -22.1026507709  TIP3      4216            0.0000000000
     26447      4316  TIP3      H1            -22.7608218512      -21.2328142090      -22.8419849372  TIP3      4216            0.0000000000
     26448      4316  TIP3      H2            -21.5620168643      -21.8276100505      -22.1759529497  TIP3      4216            0.0000000000
     26449      4317  TIP3      OH2           -12.1540922907      -19.2467242685      -22.7812353967  TIP3      4217            0.0000000000
     26450      4317  TIP3      H1            -12.6073306536      -19.4728300733      -23.6103111016  TIP3      4217            0.0000000000
     26451      4317  TIP3      H2            -12.2945820226      -18.2745988897      -22.7321862053  TIP3      4217            0.0000000000
     26452      4318  TIP3      OH2           -12.8556472565      -23.0987958297      -22.4695998873  TIP3      4218            0.0000000000
     26453      4318  TIP3      H1            -12.3373807353      -22.2846031508      -22.4225069331  TIP3      4218            0.0000000000
     26454      4318  TIP3      H2            -13.3058195169      -22.9795769290      -23.3273080707  TIP3      4218            0.0000000000
     26455      4319  TIP3      OH2           -13.6761220275      -26.0294292900      -22.6894356354  TIP3      4219            0.0000000000
     26456      4319  TIP3      H1            -13.5641175817      -25.1871094916      -22.2101853706  TIP3      4219            0.0000000000
     26457      4319  TIP3      H2            -14.1122083269      -25.7092643711      -23.4921005779  TIP3      4219            0.0000000000
     26458      4320  TIP3      OH2           -26.2113018752      -26.1451423202      -21.2364255929  TIP3      4220            0.0000000000
     26459      4320  TIP3      H1            -26.3227832022      -27.0689965662      -21.4966151378  TIP3      4220            0.0000000000
     26460      4320  TIP3      H2            -26.4269993305      -26.2059104771      -20.2853681115  TIP3      4220            0.0000000000
     26461      4321  TIP3      OH2           -26.0124389879      -12.1841326251      -22.1456507298  TIP3      4221            0.0000000000
     26462      4321  TIP3      H1            -25.7567950280      -12.7600880303      -21.4007160362  TIP3      4221            0.0000000000
     26463      4321  TIP3      H2            -25.2352733926      -12.3832203120      -22.7281957234  TIP3      4221            0.0000000000
     26464      4322  TIP3      OH2             4.1825089895      -19.2542179914      -21.4596655829  TIP3      4222            0.0000000000
     26465      4322  TIP3      H1              4.0302148854      -19.5242221621      -22.3796062731  TIP3      4222            0.0000000000
     26466      4322  TIP3      H2              5.1294205868      -18.9911004689      -21.4663403323  TIP3      4222            0.0000000000
     26467      4323  TIP3      OH2             3.3144274198      -15.8540330125      -21.6135356259  TIP3      4223            0.0000000000
     26468      4323  TIP3      H1              3.6392746064      -15.7712197989      -20.7074809521  TIP3      4223            0.0000000000
     26469      4323  TIP3      H2              2.3996361095      -16.1590198673      -21.3832156648  TIP3      4223            0.0000000000
     26470      4324  TIP3      OH2             7.6141472429      -12.1385879900      -21.1507631006  TIP3      4224            0.0000000000
     26471      4324  TIP3      H1              8.2454235341      -11.4122519567      -21.1943601293  TIP3      4224            0.0000000000
     26472      4324  TIP3      H2              6.7758799446      -11.6533734270      -21.1637462668  TIP3      4224            0.0000000000
     26473      4325  TIP3      OH2            -0.4574076836      -12.9375954584      -22.6880509996  TIP3      4225            0.0000000000
     26474      4325  TIP3      H1             -0.7449333959      -13.5114254179      -21.9554382134  TIP3      4225            0.0000000000
     26475      4325  TIP3      H2              0.1552684742      -13.5448169482      -23.1619185758  TIP3      4225            0.0000000000
     26476      4326  TIP3      OH2             3.5104381265      -13.4629463515      -22.9043757068  TIP3      4226            0.0000000000
     26477      4326  TIP3      H1              3.4560899982      -14.0950411791      -22.1600760570  TIP3      4226            0.0000000000
     26478      4326  TIP3      H2              4.3916150035      -13.6466151712      -23.2950679640  TIP3      4226            0.0000000000
     26479      4327  TIP3      OH2            -2.7614544522      -20.8940550850      -22.2823708144  TIP3      4227            0.0000000000
     26480      4327  TIP3      H1             -3.2735996965      -20.7839027526      -23.0969121383  TIP3      4227            0.0000000000
     26481      4327  TIP3      H2             -2.2694715243      -21.7121356360      -22.4179842896  TIP3      4227            0.0000000000
     26482      4328  TIP3      OH2            -3.0675796035      -10.4813712589      -21.5011180857  TIP3      4228            0.0000000000
     26483      4328  TIP3      H1             -2.2657964787      -10.6136194385      -20.9591314452  TIP3      4228            0.0000000000
     26484      4328  TIP3      H2             -2.7800128441      -10.9140982674      -22.3076888277  TIP3      4228            0.0000000000
     26485      4329  TIP3      OH2             6.8635510678      -23.4676891049      -22.0885995873  TIP3      4229            0.0000000000
     26486      4329  TIP3      H1              6.6272227026      -22.5425496288      -22.0414593947  TIP3      4229            0.0000000000
     26487      4329  TIP3      H2              6.0536881042      -23.8322538720      -22.5020814950  TIP3      4229            0.0000000000
     26488      4330  TIP3      OH2             4.8360102864      -25.2526432793      -22.4500378509  TIP3      4230            0.0000000000
     26489      4330  TIP3      H1              4.8853712587      -25.2603354775      -23.4213755384  TIP3      4230            0.0000000000
     26490      4330  TIP3      H2              4.0411088913      -25.8159651590      -22.3148893842  TIP3      4230            0.0000000000
     26491      4331  TIP3      OH2             6.7966569464      -27.1087364866      -21.2030255240  TIP3      4231            0.0000000000
     26492      4331  TIP3      H1              6.7937099498      -27.2839336382      -22.1621759859  TIP3      4231            0.0000000000
     26493      4331  TIP3      H2              6.6446052905      -26.1487849481      -21.2706285474  TIP3      4231            0.0000000000
     26494      4332  TIP3      OH2            -0.0358265670      -10.8450996805      -21.0102577522  TIP3      4232            0.0000000000
     26495      4332  TIP3      H1              0.8651320781      -10.8890782582      -20.6165931242  TIP3      4232            0.0000000000
     26496      4332  TIP3      H2              0.0563131894      -11.5340825050      -21.6953328952  TIP3      4232            0.0000000000
     26497      4333  TIP3      OH2            -8.2258330366      -12.6104015527      -22.5487646844  TIP3      4233            0.0000000000
     26498      4333  TIP3      H1             -8.4346403887      -12.9466071002      -21.6623044048  TIP3      4233            0.0000000000
     26499      4333  TIP3      H2             -7.2940318276      -12.8815636590      -22.6792812715  TIP3      4233            0.0000000000
     26500      4334  TIP3      OH2            21.5678065136      -11.9286423844      -20.6802545813  TIP3      4234            0.0000000000
     26501      4334  TIP3      H1             21.7651663633      -12.1930313145      -21.5877040997  TIP3      4234            0.0000000000
     26502      4334  TIP3      H2             21.9287046283      -11.0339862412      -20.5859985842  TIP3      4234            0.0000000000
     26503      4335  TIP3      OH2            22.6763981219      -19.4894824449      -21.8781012992  TIP3      4235            0.0000000000
     26504      4335  TIP3      H1             22.3590380232      -19.8842918147      -22.7047368287  TIP3      4235            0.0000000000
     26505      4335  TIP3      H2             23.5531920290      -19.1816126024      -22.1669436804  TIP3      4235            0.0000000000
     26506      4336  TIP3      OH2            10.0314003467      -20.6307942065      -20.8976351110  TIP3      4236            0.0000000000
     26507      4336  TIP3      H1             10.0634579840      -21.0098745785      -19.9861127501  TIP3      4236            0.0000000000
     26508      4336  TIP3      H2              9.7583233382      -19.7214375299      -20.6226231420  TIP3      4236            0.0000000000
     26509      4337  TIP3      OH2            12.8707624918      -15.2584992335      -21.5551482143  TIP3      4237            0.0000000000
     26510      4337  TIP3      H1             13.1805635497      -15.1241583239      -20.6401082071  TIP3      4237            0.0000000000
     26511      4337  TIP3      H2             12.7053293847      -16.2103894227      -21.5188907309  TIP3      4237            0.0000000000
     26512      4338  TIP3      OH2            22.5841172449      -13.5912871151      -22.9484394120  TIP3      4238            0.0000000000
     26513      4338  TIP3      H1             23.5110931172      -13.6263649276      -22.6629610636  TIP3      4238            0.0000000000
     26514      4338  TIP3      H2             22.8017821738      -13.4850818238      -23.8983432322  TIP3      4238            0.0000000000
     26515      4339  TIP3      OH2            13.6491598708      -17.9992649745      -22.5971082699  TIP3      4239            0.0000000000
     26516      4339  TIP3      H1             13.8143915754      -18.2201007573      -21.6638818851  TIP3      4239            0.0000000000
     26517      4339  TIP3      H2             14.5320832043      -17.9421460868      -23.0023458662  TIP3      4239            0.0000000000
     26518      4340  TIP3      OH2            18.9348773541      -16.2251243029      -23.3703184553  TIP3      4240            0.0000000000
     26519      4340  TIP3      H1             18.2768065530      -16.8038872188      -22.9493316043  TIP3      4240            0.0000000000
     26520      4340  TIP3      H2             19.3760394603      -16.9622754232      -23.8383336333  TIP3      4240            0.0000000000
     26521      4341  TIP3      OH2            15.9433942849      -21.1397124866      -22.2075366791  TIP3      4241            0.0000000000
     26522      4341  TIP3      H1             15.3235366422      -20.6160328656      -22.7435986477  TIP3      4241            0.0000000000
     26523      4341  TIP3      H2             16.7384820298      -21.1838739743      -22.7571403274  TIP3      4241            0.0000000000
     26524      4342  TIP3      OH2            25.1416081571      -18.9949460757      -22.8422955337  TIP3      4242            0.0000000000
     26525      4342  TIP3      H1             25.0679328071      -19.2308382751      -23.7932010444  TIP3      4242            0.0000000000
     26526      4342  TIP3      H2             25.1647749698      -18.0062719958      -22.9121803725  TIP3      4242            0.0000000000
     26527      4343  TIP3      OH2            16.2098595049      -10.7216033885      -20.6053380152  TIP3      4243            0.0000000000
     26528      4343  TIP3      H1             16.8216869252       -9.9872524152      -20.8352069130  TIP3      4243            0.0000000000
     26529      4343  TIP3      H2             15.5663588217      -10.6988590954      -21.3236526682  TIP3      4243            0.0000000000
     26530      4344  TIP3      OH2            26.9514322099      -19.1283377801      -20.9802341605  TIP3      4244            0.0000000000
     26531      4344  TIP3      H1             26.3261442927      -19.4151244690      -21.6930475707  TIP3      4244            0.0000000000
     26532      4344  TIP3      H2             26.6935986641      -18.1969818717      -20.9215017140  TIP3      4244            0.0000000000
     26533      4345  TIP3      OH2            25.2532769883      -23.1139138246      -22.2154333678  TIP3      4245            0.0000000000
     26534      4345  TIP3      H1             24.5315365399      -22.6522423555      -21.7676796027  TIP3      4245            0.0000000000
     26535      4345  TIP3      H2             24.7548148760      -23.7794103428      -22.7134181114  TIP3      4245            0.0000000000
     26536      4346  TIP3      OH2            23.6261137622      -25.3974188385      -22.2710724012  TIP3      4246            0.0000000000
     26537      4346  TIP3      H1             24.2896227288      -25.7269114185      -22.9036081253  TIP3      4246            0.0000000000
     26538      4346  TIP3      H2             22.8178392589      -25.8581598701      -22.5503740224  TIP3      4246            0.0000000000
     26539      4347  TIP3      OH2            28.5575696426      -21.0965127779      -21.8373927268  TIP3      4247            0.0000000000
     26540      4347  TIP3      H1             29.1067643286      -20.3574031834      -22.1340063127  TIP3      4247            0.0000000000
     26541      4347  TIP3      H2             27.8557487723      -20.5745221498      -21.3860192108  TIP3      4247            0.0000000000
     26542      4348  TIP3      OH2            28.8582498362      -23.7600189090      -22.2452445593  TIP3      4248            0.0000000000
     26543      4348  TIP3      H1             28.4649984420      -22.8613292871      -22.1345504676  TIP3      4248            0.0000000000
     26544      4348  TIP3      H2             28.4332944664      -24.2103258949      -21.5096452421  TIP3      4248            0.0000000000
     26545      4349  TIP3      OH2           -11.0952096298        3.9301177221      -21.5671186991  TIP3      4249            0.0000000000
     26546      4349  TIP3      H1            -11.2620611913        4.8514531570      -21.3557213746  TIP3      4249            0.0000000000
     26547      4349  TIP3      H2            -10.5043810311        3.6834820620      -20.8371973741  TIP3      4249            0.0000000000
     26548      4350  TIP3      OH2           -19.8041615145       -7.5959079115      -21.3257175918  TIP3      4250            0.0000000000
     26549      4350  TIP3      H1            -19.8993054314       -6.6424733408      -21.2368709778  TIP3      4250            0.0000000000
     26550      4350  TIP3      H2            -20.5215046789       -7.7878366915      -21.9416844327  TIP3      4250            0.0000000000
     26551      4351  TIP3      OH2           -22.8699642944       -6.5402111645      -21.9263006746  TIP3      4251            0.0000000000
     26552      4351  TIP3      H1            -23.6279944577       -6.9588215510      -21.4530057346  TIP3      4251            0.0000000000
     26553      4351  TIP3      H2            -23.3381923148       -5.7997278031      -22.3557416446  TIP3      4251            0.0000000000
     26554      4352  TIP3      OH2           -20.9581148570        3.5589206368      -22.8968467693  TIP3      4252            0.0000000000
     26555      4352  TIP3      H1            -21.4805037728        2.9537960478      -23.4540569872  TIP3      4252            0.0000000000
     26556      4352  TIP3      H2            -21.4414312638        3.5009837982      -22.0449751550  TIP3      4252            0.0000000000
     26557      4353  TIP3      OH2           -22.2551187623        3.4885237257      -20.3969722855  TIP3      4253            0.0000000000
     26558      4353  TIP3      H1            -22.1301405097        2.8103735035      -19.7211734367  TIP3      4253            0.0000000000
     26559      4353  TIP3      H2            -23.1353672624        3.8324978624      -20.1717373633  TIP3      4253            0.0000000000
     26560      4354  TIP3      OH2           -27.6126889993       -3.7157034953      -22.3408900278  TIP3      4254            0.0000000000
     26561      4354  TIP3      H1            -27.4005498267       -3.0806635653      -21.6373560681  TIP3      4254            0.0000000000
     26562      4354  TIP3      H2            -28.4836306014       -4.0831817768      -22.0507710672  TIP3      4254            0.0000000000
     26563      4355  TIP3      OH2           -19.1915284134        5.6552582985      -22.6372780391  TIP3      4255            0.0000000000
     26564      4355  TIP3      H1            -19.7630694429        4.8635306938      -22.5898396908  TIP3      4255            0.0000000000
     26565      4355  TIP3      H2            -18.4306169584        5.3243101184      -23.1646855765  TIP3      4255            0.0000000000
     26566      4356  TIP3      OH2           -14.8434437422        5.1966544717      -22.7022966046  TIP3      4256            0.0000000000
     26567      4356  TIP3      H1            -14.4386048265        5.1478780377      -21.8231094775  TIP3      4256            0.0000000000
     26568      4356  TIP3      H2            -14.0890588941        5.3494784006      -23.3026548477  TIP3      4256            0.0000000000
     26569      4357  TIP3      OH2           -24.1622952423        0.4396070429      -23.1705006808  TIP3      4257            0.0000000000
     26570      4357  TIP3      H1            -24.2648466970        0.5412362412      -22.2077019227  TIP3      4257            0.0000000000
     26571      4357  TIP3      H2            -23.2512280845        0.7510328541      -23.3340455427  TIP3      4257            0.0000000000
     26572      4358  TIP3      OH2           -18.3687855630        2.4702312595      -22.5847391573  TIP3      4258            0.0000000000
     26573      4358  TIP3      H1            -19.3250176570        2.6010635188      -22.7044796301  TIP3      4258            0.0000000000
     26574      4358  TIP3      H2            -18.3083778736        1.5344166270      -22.8682199229  TIP3      4258            0.0000000000
     26575      4359  TIP3      OH2           -21.8119417430       -2.2782008727      -21.7047196547  TIP3      4259            0.0000000000
     26576      4359  TIP3      H1            -21.9286457488       -3.1361677236      -22.1264403248  TIP3      4259            0.0000000000
     26577      4359  TIP3      H2            -20.9538308226       -2.3769948287      -21.2592664403  TIP3      4259            0.0000000000
     26578      4360  TIP3      OH2           -12.1111739761       -0.1492424896      -22.5027938459  TIP3      4260            0.0000000000
     26579      4360  TIP3      H1            -12.5962130470       -0.3961132155      -23.3151611623  TIP3      4260            0.0000000000
     26580      4360  TIP3      H2            -12.1682607936        0.8351264071      -22.5269849166  TIP3      4260            0.0000000000
     26581      4361  TIP3      OH2           -12.5651224206       -3.5023746220      -21.9527515448  TIP3      4261            0.0000000000
     26582      4361  TIP3      H1            -12.5152982126       -2.8996692196      -22.7026792963  TIP3      4261            0.0000000000
     26583      4361  TIP3      H2            -12.7896750629       -4.3368044159      -22.3718579801  TIP3      4261            0.0000000000
     26584      4362  TIP3      OH2           -10.9420180535       -7.5424822457      -21.0071831939  TIP3      4262            0.0000000000
     26585      4362  TIP3      H1            -10.7921413642       -8.4229483092      -21.3948118690  TIP3      4262            0.0000000000
     26586      4362  TIP3      H2            -11.6438738487       -7.7365842715      -20.3645179460  TIP3      4262            0.0000000000
     26587      4363  TIP3      OH2           -25.2638647712       -7.3878887646      -20.8756454179  TIP3      4263            0.0000000000
     26588      4363  TIP3      H1            -25.2879675833       -7.9923977146      -21.6437132195  TIP3      4263            0.0000000000
     26589      4363  TIP3      H2            -26.1886430319       -7.1993506435      -20.6468041985  TIP3      4263            0.0000000000
     26590      4364  TIP3      OH2           -26.0277842661        7.0801221451      -22.2899874352  TIP3      4264            0.0000000000
     26591      4364  TIP3      H1            -26.5802305163        6.4239217504      -21.8414084221  TIP3      4264            0.0000000000
     26592      4364  TIP3      H2            -25.1873482715        6.5766596973      -22.4074916469  TIP3      4264            0.0000000000
     26593      4365  TIP3      OH2             6.7543637648        4.3941447663      -21.4651047508  TIP3      4265            0.0000000000
     26594      4365  TIP3      H1              7.7000260232        4.2918949130      -21.6483746177  TIP3      4265            0.0000000000
     26595      4365  TIP3      H2              6.3799898714        3.5149187026      -21.6534605462  TIP3      4265            0.0000000000
     26596      4366  TIP3      OH2             4.0966925860       -1.3635082511      -22.0782581583  TIP3      4266            0.0000000000
     26597      4366  TIP3      H1              4.0261663927       -1.1592023025      -23.0320720658  TIP3      4266            0.0000000000
     26598      4366  TIP3      H2              4.2679884071       -0.5138102920      -21.6698165491  TIP3      4266            0.0000000000
     26599      4367  TIP3      OH2            -1.1250527448       -6.4916833221      -21.8859579943  TIP3      4267            0.0000000000
     26600      4367  TIP3      H1             -0.9564153966       -6.3730872857      -20.9462810927  TIP3      4267            0.0000000000
     26601      4367  TIP3      H2             -1.0612739866       -7.4547956469      -21.9619360057  TIP3      4267            0.0000000000
     26602      4368  TIP3      OH2            -4.8865147213       -3.9035177337      -21.7584526117  TIP3      4268            0.0000000000
     26603      4368  TIP3      H1             -5.4203422367       -4.1798712906      -22.5330637588  TIP3      4268            0.0000000000
     26604      4368  TIP3      H2             -4.8753313937       -2.9581604672      -21.9282814202  TIP3      4268            0.0000000000
     26605      4369  TIP3      OH2            -2.3873916582        3.9147797631      -22.7895733776  TIP3      4269            0.0000000000
     26606      4369  TIP3      H1             -2.7275629980        3.4788534359      -23.5864840564  TIP3      4269            0.0000000000
     26607      4369  TIP3      H2             -2.7656268615        3.3669718622      -22.0846254501  TIP3      4269            0.0000000000
     26608      4370  TIP3      OH2            -3.5716287113        3.2411056417      -20.0077905860  TIP3      4270            0.0000000000
     26609      4370  TIP3      H1             -4.0117565106        2.5184147716      -19.5222428091  TIP3      4270            0.0000000000
     26610      4370  TIP3      H2             -3.7292345775        3.9597586283      -19.3826410451  TIP3      4270            0.0000000000
     26611      4371  TIP3      OH2             3.8577111716        5.0948541559      -22.7681461770  TIP3      4271            0.0000000000
     26612      4371  TIP3      H1              3.6814598813        5.8413664196      -22.1691323645  TIP3      4271            0.0000000000
     26613      4371  TIP3      H2              4.7680413268        5.2827519445      -23.0646894531  TIP3      4271            0.0000000000
     26614      4372  TIP3      OH2            -5.1839120116        1.3477712301      -23.0586030059  TIP3      4272            0.0000000000
     26615      4372  TIP3      H1             -5.1684155729        1.5206491737      -22.1043090735  TIP3      4272            0.0000000000
     26616      4372  TIP3      H2             -4.2871989155        1.0285038188      -23.2777281713  TIP3      4272            0.0000000000
     26617      4373  TIP3      OH2             1.0316198985        2.3348438812      -22.5522801024  TIP3      4273            0.0000000000
     26618      4373  TIP3      H1              1.2752542959        2.3190436563      -21.6135830902  TIP3      4273            0.0000000000
     26619      4373  TIP3      H2              0.5607440368        1.4865424495      -22.6525876231  TIP3      4273            0.0000000000
     26620      4374  TIP3      OH2             6.1291576791       -3.7118555648      -22.5162470195  TIP3      4274            0.0000000000
     26621      4374  TIP3      H1              6.0276705699       -3.4810184571      -23.4480145116  TIP3      4274            0.0000000000
     26622      4374  TIP3      H2              5.6388996650       -4.5400184462      -22.4682741908  TIP3      4274            0.0000000000
     26623      4375  TIP3      OH2             4.7141145394       -7.2496179715      -22.3092562998  TIP3      4275            0.0000000000
     26624      4375  TIP3      H1              5.6183997259       -7.2018175814      -21.9945305232  TIP3      4275            0.0000000000
     26625      4375  TIP3      H2              4.4634976478       -8.1240642193      -21.9049872576  TIP3      4275            0.0000000000
     26626      4376  TIP3      OH2            -7.4826718917        6.9416332248      -22.8041908682  TIP3      4276            0.0000000000
     26627      4376  TIP3      H1             -7.8034040107        6.6792768314      -21.9309941771  TIP3      4276            0.0000000000
     26628      4376  TIP3      H2             -6.9150096392        6.2015614828      -23.0507773916  TIP3      4276            0.0000000000
     26629      4377  TIP3      OH2            25.4911810360        3.9874223649      -20.9613161173  TIP3      4277            0.0000000000
     26630      4377  TIP3      H1             25.5351095293        4.9447261937      -21.1993274915  TIP3      4277            0.0000000000
     26631      4377  TIP3      H2             26.4104646784        3.7066856281      -21.1356022062  TIP3      4277            0.0000000000
     26632      4378  TIP3      OH2            13.9403215133       -6.7321593693      -21.7590134084  TIP3      4278            0.0000000000
     26633      4378  TIP3      H1             13.2431185732       -7.2739134107      -21.3176447009  TIP3      4278            0.0000000000
     26634      4378  TIP3      H2             13.4145256355       -6.2364778135      -22.4147520444  TIP3      4278            0.0000000000
     26635      4379  TIP3      OH2            13.1652651901       -3.4295875424      -21.0570944218  TIP3      4279            0.0000000000
     26636      4379  TIP3      H1             13.3204982466       -3.9833529569      -21.8415278697  TIP3      4279            0.0000000000
     26637      4379  TIP3      H2             14.0732513596       -3.3128554093      -20.7313502445  TIP3      4279            0.0000000000
     26638      4380  TIP3      OH2            21.5727104300        2.1207091242      -20.9276333672  TIP3      4280            0.0000000000
     26639      4380  TIP3      H1             22.5181620130        2.0582048942      -20.6833235759  TIP3      4280            0.0000000000
     26640      4380  TIP3      H2             21.5158171842        1.2688300381      -21.4016192950  TIP3      4280            0.0000000000
     26641      4381  TIP3      OH2            25.6065321556        6.5004444254      -21.7498777053  TIP3      4281            0.0000000000
     26642      4381  TIP3      H1             26.3006622236        6.7701629811      -22.3840615776  TIP3      4281            0.0000000000
     26643      4381  TIP3      H2             25.7528000356        7.2112129271      -21.0941434191  TIP3      4281            0.0000000000
     26644      4382  TIP3      OH2            16.3896062283        4.0164394984      -22.6690064311  TIP3      4282            0.0000000000
     26645      4382  TIP3      H1             16.0470822096        3.7750146977      -23.5413931594  TIP3      4282            0.0000000000
     26646      4382  TIP3      H2             15.6003047735        4.3781505713      -22.2372111018  TIP3      4282            0.0000000000
     26647      4383  TIP3      OH2            15.0179147575        3.6465864735      -19.9412596769  TIP3      4283            0.0000000000
     26648      4383  TIP3      H1             14.6760804118        3.1457534452      -19.1851338765  TIP3      4283            0.0000000000
     26649      4383  TIP3      H2             15.3730508283        4.4331298273      -19.4926918098  TIP3      4283            0.0000000000
     26650      4384  TIP3      OH2            12.7809562340        2.6012119074      -21.2398167969  TIP3      4284            0.0000000000
     26651      4384  TIP3      H1             13.6501766908        2.8691202001      -20.8770180882  TIP3      4284            0.0000000000
     26652      4384  TIP3      H2             12.9817895700        1.8095535117      -21.7792767934  TIP3      4284            0.0000000000
     26653      4385  TIP3      OH2            10.2929306564       -4.3247020269      -22.1173764296  TIP3      4285            0.0000000000
     26654      4385  TIP3      H1             11.0330666859       -4.2235672601      -21.5003995516  TIP3      4285            0.0000000000
     26655      4385  TIP3      H2              9.9639855783       -5.2339557173      -21.8697661917  TIP3      4285            0.0000000000
     26656      4386  TIP3      OH2            18.1739829565        6.1242725887      -22.7958775515  TIP3      4286            0.0000000000
     26657      4386  TIP3      H1             17.5362330995        5.4784808243      -22.4319965873  TIP3      4286            0.0000000000
     26658      4386  TIP3      H2             18.8649807884        5.5231996960      -23.1290815429  TIP3      4286            0.0000000000
     26659      4387  TIP3      OH2            22.7749684789        5.0841889382      -22.9652156414  TIP3      4287            0.0000000000
     26660      4387  TIP3      H1             23.3010374710        5.2929327305      -22.1855035914  TIP3      4287            0.0000000000
     26661      4387  TIP3      H2             23.5005102145        5.0165560190      -23.6216274770  TIP3      4287            0.0000000000
     26662      4388  TIP3      OH2            13.4742959028        0.5730205836      -23.0473323741  TIP3      4288            0.0000000000
     26663      4388  TIP3      H1             13.3948640581       -0.3048486360      -22.6437699523  TIP3      4288            0.0000000000
     26664      4388  TIP3      H2             14.0707309780        0.3960793026      -23.7955628141  TIP3      4288            0.0000000000
     26665      4389  TIP3      OH2            15.8660013300       -2.6075676521      -21.9675150187  TIP3      4289            0.0000000000
     26666      4389  TIP3      H1             15.6784539875       -2.4080750898      -22.9037238800  TIP3      4289            0.0000000000
     26667      4389  TIP3      H2             16.4318159286       -3.3942849652      -22.0230056334  TIP3      4289            0.0000000000
     26668      4390  TIP3      OH2            15.8684205769        7.7520483645      -21.3311699591  TIP3      4290            0.0000000000
     26669      4390  TIP3      H1             16.3329764505        7.7969530912      -20.4819688387  TIP3      4290            0.0000000000
     26670      4390  TIP3      H2             16.3926924023        8.4173386948      -21.8088364293  TIP3      4290            0.0000000000
     26671      4391  TIP3      OH2            24.9636749785       -4.6149297676      -22.3866992411  TIP3      4291            0.0000000000
     26672      4391  TIP3      H1             24.5694599987       -3.8315248710      -21.9939565552  TIP3      4291            0.0000000000
     26673      4391  TIP3      H2             24.2271277132       -5.0231221561      -22.8911632120  TIP3      4291            0.0000000000
     26674      4392  TIP3      OH2            23.4520978556       -6.7923527122      -23.1488975465  TIP3      4292            0.0000000000
     26675      4392  TIP3      H1             24.0480792098       -6.9353409106      -22.3983660580  TIP3      4292            0.0000000000
     26676      4392  TIP3      H2             22.5770120857       -7.1505959932      -22.8778481959  TIP3      4292            0.0000000000
     26677      4393  TIP3      OH2            25.4731810498       -7.4961390158      -21.2627619586  TIP3      4293            0.0000000000
     26678      4393  TIP3      H1             25.5587564429       -8.4300289652      -21.5290220358  TIP3      4293            0.0000000000
     26679      4393  TIP3      H2             26.0915067217       -7.0839686201      -21.8817510752  TIP3      4293            0.0000000000
     26680      4394  TIP3      OH2            18.6065547906        8.1156170206      -20.9288198395  TIP3      4294            0.0000000000
     26681      4394  TIP3      H1             19.4303386780        8.5681516824      -21.1506379599  TIP3      4294            0.0000000000
     26682      4394  TIP3      H2             18.5251791069        7.4506062200      -21.6420225021  TIP3      4294            0.0000000000
     26683      4395  TIP3      OH2            28.8366098810       -4.5029129403      -21.7287818048  TIP3      4295            0.0000000000
     26684      4395  TIP3      H1             28.9992717604       -4.4504705796      -20.7485302648  TIP3      4295            0.0000000000
     26685      4395  TIP3      H2             27.8776135083       -4.6294217784      -21.7411200705  TIP3      4295            0.0000000000
     26686      4396  TIP3      OH2            28.1409882667        2.8872494061      -21.5355576757  TIP3      4296            0.0000000000
     26687      4396  TIP3      H1             28.6096199313        3.7284475576      -21.6839286642  TIP3      4296            0.0000000000
     26688      4396  TIP3      H2             28.2926058789        2.3590472938      -22.3389600880  TIP3      4296            0.0000000000
     26689      4397  TIP3      OH2           -18.2979561166       16.6675639188      -21.5606370952  TIP3      4297            0.0000000000
     26690      4397  TIP3      H1            -17.7479644016       16.7722779726      -20.7599136287  TIP3      4297            0.0000000000
     26691      4397  TIP3      H2            -17.8346999557       15.9150528041      -21.9831040844  TIP3      4297            0.0000000000
     26692      4398  TIP3      OH2           -14.7470273423       18.0990847643      -21.8603062756  TIP3      4298            0.0000000000
     26693      4398  TIP3      H1            -14.9135785507       17.9546869920      -22.8181978109  TIP3      4298            0.0000000000
     26694      4398  TIP3      H2            -14.6943088823       19.0617510252      -21.8565877749  TIP3      4298            0.0000000000
     26695      4399  TIP3      OH2           -19.8044426346       11.9793318718      -21.7873538217  TIP3      4299            0.0000000000
     26696      4399  TIP3      H1            -19.5971860136       12.8102928272      -21.3586239198  TIP3      4299            0.0000000000
     26697      4399  TIP3      H2            -20.7780888135       12.0497966781      -21.8345545043  TIP3      4299            0.0000000000
     26698      4400  TIP3      OH2           -22.9094732446       12.2335469661      -22.0224926016  TIP3      4300            0.0000000000
     26699      4400  TIP3      H1            -23.4581896058       11.4414432527      -22.0009799730  TIP3      4300            0.0000000000
     26700      4400  TIP3      H2            -23.4707965912       12.8512742538      -22.5178796211  TIP3      4300            0.0000000000
     26701      4401  TIP3      OH2           -27.9602326133       17.4968310542      -21.0845577635  TIP3      4301            0.0000000000
     26702      4401  TIP3      H1            -27.6781882945       17.8722071476      -20.2409565324  TIP3      4301            0.0000000000
     26703      4401  TIP3      H2            -28.9372497248       17.5664295058      -20.9547985133  TIP3      4301            0.0000000000
     26704      4402  TIP3      OH2           -14.8228101797       21.5110499938      -21.1889480989  TIP3      4302            0.0000000000
     26705      4402  TIP3      H1            -14.5886028470       21.7935849623      -20.2801412516  TIP3      4302            0.0000000000
     26706      4402  TIP3      H2            -15.7863573545       21.4826940788      -21.0721086343  TIP3      4302            0.0000000000
     26707      4403  TIP3      OH2           -27.3296952987       15.0370509209      -21.9275577302  TIP3      4303            0.0000000000
     26708      4403  TIP3      H1            -27.4125812991       15.9308672857      -21.5326323438  TIP3      4303            0.0000000000
     26709      4403  TIP3      H2            -28.2720753126       14.7698450736      -21.9584072645  TIP3      4303            0.0000000000
     26710      4404  TIP3      OH2           -14.9288126769       24.0015133130      -22.8770621838  TIP3      4304            0.0000000000
     26711      4404  TIP3      H1            -14.7867453989       23.2172344073      -22.3056378550  TIP3      4304            0.0000000000
     26712      4404  TIP3      H2            -14.1188677406       24.0311431163      -23.4315138131  TIP3      4304            0.0000000000
     26713      4405  TIP3      OH2           -17.9977004296       21.4753207845      -23.2444349662  TIP3      4305            0.0000000000
     26714      4405  TIP3      H1            -18.9237419865       21.2306276684      -23.0752739843  TIP3      4305            0.0000000000
     26715      4405  TIP3      H2            -17.6868625369       20.5600412276      -23.4430410369  TIP3      4305            0.0000000000
     26716      4406  TIP3      OH2           -13.5645099704       11.7559005876      -22.0484838490  TIP3      4306            0.0000000000
     26717      4406  TIP3      H1            -13.0380487669       11.9474720821      -22.8384698561  TIP3      4306            0.0000000000
     26718      4406  TIP3      H2            -14.4583497189       11.7076739760      -22.4429760629  TIP3      4306            0.0000000000
     26719      4407  TIP3      OH2           -25.4989524830       11.4000523760      -20.6263470066  TIP3      4307            0.0000000000
     26720      4407  TIP3      H1            -25.4827032687       11.0354870099      -21.5282822547  TIP3      4307            0.0000000000
     26721      4407  TIP3      H2            -25.5734251785       12.3433203585      -20.8266489176  TIP3      4307            0.0000000000
     26722      4408  TIP3      OH2            -0.3181752964       16.3336003658      -21.7655097817  TIP3      4308            0.0000000000
     26723      4408  TIP3      H1             -0.1157702631       16.7175295033      -20.9053707023  TIP3      4308            0.0000000000
     26724      4408  TIP3      H2              0.5155486201       15.8537881569      -21.9864917053  TIP3      4308            0.0000000000
     26725      4409  TIP3      OH2             6.9659714649       23.3822900007      -21.5046170002  TIP3      4309            0.0000000000
     26726      4409  TIP3      H1              7.1448188305       24.1900420411      -21.0145590033  TIP3      4309            0.0000000000
     26727      4409  TIP3      H2              7.7390432821       22.8165407353      -21.2710818384  TIP3      4309            0.0000000000
     26728      4410  TIP3      OH2            -0.1643276024       12.3324602009      -21.1498486270  TIP3      4310            0.0000000000
     26729      4410  TIP3      H1             -0.2603160833       11.6133535942      -20.5144254376  TIP3      4310            0.0000000000
     26730      4410  TIP3      H2             -0.9096388384       12.2106550240      -21.7524184753  TIP3      4310            0.0000000000
     26731      4411  TIP3      OH2             2.7541263322       12.7426655386      -20.6774946254  TIP3      4311            0.0000000000
     26732      4411  TIP3      H1              1.7884816751       12.6693834711      -20.7253687731  TIP3      4311            0.0000000000
     26733      4411  TIP3      H2              2.8906258210       13.6934183482      -20.6457617745  TIP3      4311            0.0000000000
     26734      4412  TIP3      OH2            -8.7862578975       17.5974188119      -21.0386103879  TIP3      4312            0.0000000000
     26735      4412  TIP3      H1             -8.1140980064       17.3187531898      -20.3806972902  TIP3      4312            0.0000000000
     26736      4412  TIP3      H2             -9.0514229651       18.4233736271      -20.5983981740  TIP3      4312            0.0000000000
     26737      4413  TIP3      OH2            -2.5863952571       22.6803125408      -22.7351250521  TIP3      4313            0.0000000000
     26738      4413  TIP3      H1             -2.7675100366       21.9800739802      -23.3752452609  TIP3      4313            0.0000000000
     26739      4413  TIP3      H2             -3.0927545947       22.3701916785      -21.9527389360  TIP3      4313            0.0000000000
     26740      4414  TIP3      OH2            -3.5539329087       21.9863948589      -20.1682808875  TIP3      4314            0.0000000000
     26741      4414  TIP3      H1             -3.8591885137       21.1928427885      -19.6919858471  TIP3      4314            0.0000000000
     26742      4414  TIP3      H2             -3.1318477983       22.4478880384      -19.4303494136  TIP3      4314            0.0000000000
     26743      4415  TIP3      OH2             3.9049031820       24.1573995235      -22.8031965879  TIP3      4315            0.0000000000
     26744      4415  TIP3      H1              4.6371664634       24.1869800034      -22.1625264185  TIP3      4315            0.0000000000
     26745      4415  TIP3      H2              4.4205628385       24.2253948141      -23.6457474012  TIP3      4315            0.0000000000
     26746      4416  TIP3      OH2            -5.2529798749       19.5631630301      -22.8664435095  TIP3      4316            0.0000000000
     26747      4416  TIP3      H1             -5.2074826865       19.4493770397      -21.9074152875  TIP3      4316            0.0000000000
     26748      4416  TIP3      H2             -4.3164639087       19.6096879460      -23.1302892482  TIP3      4316            0.0000000000
     26749      4417  TIP3      OH2            -3.0260517926       16.2388328285      -22.4171149787  TIP3      4317            0.0000000000
     26750      4417  TIP3      H1             -3.0147606875       16.5236798203      -23.3518360473  TIP3      4317            0.0000000000
     26751      4417  TIP3      H2             -2.0713215869       16.2274960965      -22.2403715311  TIP3      4317            0.0000000000
     26752      4418  TIP3      OH2             6.5800679109       18.8437067306      -22.5570521491  TIP3      4318            0.0000000000
     26753      4418  TIP3      H1              6.2454605475       18.4705655424      -23.3924231857  TIP3      4318            0.0000000000
     26754      4418  TIP3      H2              6.4946119808       19.8013578482      -22.7295958252  TIP3      4318            0.0000000000
     26755      4419  TIP3      OH2             5.3127206886       10.9043175679      -22.7466806630  TIP3      4319            0.0000000000
     26756      4419  TIP3      H1              5.3363084720       11.6058717011      -22.0752899580  TIP3      4319            0.0000000000
     26757      4419  TIP3      H2              4.3413491133       10.7776165455      -22.7841556495  TIP3      4319            0.0000000000
     26758      4420  TIP3      OH2            -7.3603699371       11.3069302280      -21.4454372738  TIP3      4320            0.0000000000
     26759      4420  TIP3      H1             -7.2750140327       10.6104730928      -22.1154579730  TIP3      4320            0.0000000000
     26760      4420  TIP3      H2             -7.2490659262       10.8183670489      -20.6243182900  TIP3      4320            0.0000000000
     26761      4421  TIP3      OH2            -7.2846128313       26.2991292034      -21.8059284270  TIP3      4321            0.0000000000
     26762      4421  TIP3      H1             -6.5660265270       26.3231288983      -21.1559987024  TIP3      4321            0.0000000000
     26763      4421  TIP3      H2             -6.9115069359       25.6105560139      -22.3883421395  TIP3      4321            0.0000000000
     26764      4422  TIP3      OH2            26.1220150193       23.3510782022      -21.7805705395  TIP3      4322            0.0000000000
     26765      4422  TIP3      H1             26.7595459600       23.7871200409      -21.2023479644  TIP3      4322            0.0000000000
     26766      4422  TIP3      H2             26.4040989142       22.4141954495      -21.6923164728  TIP3      4322            0.0000000000
     26767      4423  TIP3      OH2            22.4203839274       18.6322408246      -21.6170777628  TIP3      4323            0.0000000000
     26768      4423  TIP3      H1             22.0428691872       18.7573349366      -22.5057983963  TIP3      4323            0.0000000000
     26769      4423  TIP3      H2             23.3854843619       18.7287027207      -21.7880085879  TIP3      4323            0.0000000000
     26770      4424  TIP3      OH2            18.0632661902       12.0360866218      -22.1848939116  TIP3      4324            0.0000000000
     26771      4424  TIP3      H1             18.8522231609       11.5289990440      -21.9186982714  TIP3      4324            0.0000000000
     26772      4424  TIP3      H2             17.3530145414       11.3988751495      -21.9483264233  TIP3      4324            0.0000000000
     26773      4425  TIP3      OH2            14.3724983564       12.2155252846      -22.0543423958  TIP3      4325            0.0000000000
     26774      4425  TIP3      H1             14.3858256624       12.7315546375      -21.2325437808  TIP3      4325            0.0000000000
     26775      4425  TIP3      H2             14.0446143917       12.8765428029      -22.6878788942  TIP3      4325            0.0000000000
     26776      4426  TIP3      OH2            13.5343030994       14.9298209852      -21.3396394518  TIP3      4326            0.0000000000
     26777      4426  TIP3      H1             13.3502599671       14.9552923519      -22.3082796118  TIP3      4326            0.0000000000
     26778      4426  TIP3      H2             13.2706998330       15.8130746335      -21.0482290069  TIP3      4326            0.0000000000
     26779      4427  TIP3      OH2            10.3743311710       17.7481014355      -21.1633427592  TIP3      4327            0.0000000000
     26780      4427  TIP3      H1             11.1150935973       18.3465896299      -20.9368792689  TIP3      4327            0.0000000000
     26781      4427  TIP3      H2             10.0180258561       17.5302588123      -20.2692763125  TIP3      4327            0.0000000000
     26782      4428  TIP3      OH2            26.5614946808       26.0160586710      -20.0193623921  TIP3      4328            0.0000000000
     26783      4428  TIP3      H1             27.0156814981       26.6239104358      -20.6124459374  TIP3      4328            0.0000000000
     26784      4428  TIP3      H2             25.8487282616       25.6549261512      -20.5654370185  TIP3      4328            0.0000000000
     26785      4429  TIP3      OH2            16.0446036057       22.8167996920      -22.7462105953  TIP3      4329            0.0000000000
     26786      4429  TIP3      H1             16.1908231099       22.3366178233      -23.5717209024  TIP3      4329            0.0000000000
     26787      4429  TIP3      H2             15.8110824825       22.0730125013      -22.1671683452  TIP3      4329            0.0000000000
     26788      4430  TIP3      OH2            19.3628575136       21.4353174400      -23.2397953432  TIP3      4330            0.0000000000
     26789      4430  TIP3      H1             18.9741858982       21.4341645402      -22.3546319475  TIP3      4330            0.0000000000
     26790      4430  TIP3      H2             19.4340631549       20.4823286107      -23.4246257954  TIP3      4330            0.0000000000
     26791      4431  TIP3      OH2            24.8988739455       18.9158122823      -22.3875377160  TIP3      4331            0.0000000000
     26792      4431  TIP3      H1             25.0472746421       18.4698993544      -23.2375402327  TIP3      4331            0.0000000000
     26793      4431  TIP3      H2             24.8692711708       19.8632932324      -22.6465666370  TIP3      4331            0.0000000000
     26794      4432  TIP3      OH2             9.1612516225       21.7778455387      -21.4053524822  TIP3      4332            0.0000000000
     26795      4432  TIP3      H1              9.9163584858       21.2525590428      -21.1022879851  TIP3      4332            0.0000000000
     26796      4432  TIP3      H2              8.9107955166       21.2288505052      -22.1820951333  TIP3      4332            0.0000000000
     26797      4433  TIP3      OH2            23.7684004454       12.0189512026      -22.5005722715  TIP3      4333            0.0000000000
     26798      4433  TIP3      H1             24.6446969357       11.7693141149      -22.1827299865  TIP3      4333            0.0000000000
     26799      4433  TIP3      H2             23.3169538378       11.1888052663      -22.2829197528  TIP3      4333            0.0000000000
     26800      4434  TIP3      OH2            26.5822311517       10.9958352231      -21.1097078666  TIP3      4334            0.0000000000
     26801      4434  TIP3      H1             26.5456845002       10.5702262888      -21.9874779397  TIP3      4334            0.0000000000
     26802      4434  TIP3      H2             26.2811305247       10.2585862552      -20.5515350360  TIP3      4334            0.0000000000
     26803      4435  TIP3      OH2            11.1625994287       26.2509937016      -22.1553590326  TIP3      4335            0.0000000000
     26804      4435  TIP3      H1             10.9257010216       26.2374453715      -21.2295526274  TIP3      4335            0.0000000000
     26805      4435  TIP3      H2             11.9216224487       25.6419664909      -22.2310991980  TIP3      4335            0.0000000000
     26806      4436  TIP3      OH2            29.0434040387       14.6454893884      -21.7197521529  TIP3      4336            0.0000000000
     26807      4436  TIP3      H1             29.0988188959       14.9471530995      -20.7960365906  TIP3      4336            0.0000000000
     26808      4436  TIP3      H2             28.0971157647       14.7910088441      -21.8734715651  TIP3      4336            0.0000000000
     26809      4437  TIP3      OH2            27.8727559962       21.1505864596      -21.4161219449  TIP3      4337            0.0000000000
     26810      4437  TIP3      H1             28.5159592954       20.9322858329      -20.7251102452  TIP3      4337            0.0000000000
     26811      4437  TIP3      H2             27.8525566157       20.3309198046      -21.9587798226  TIP3      4337            0.0000000000
     26812      4438  TIP3      OH2           -18.4572837549      -21.8042929733       44.1578596215  TIP3      4338            0.0000000000
     26813      4438  TIP3      H1            -17.4889827036      -21.9521550695       44.2375396287  TIP3      4338            0.0000000000
     26814      4438  TIP3      H2            -18.5866791191      -22.0997646834       43.2469476711  TIP3      4338            0.0000000000
     26815      4439  TIP3      OH2           -13.6057624311      -28.6491081471       44.3854364324  TIP3      4339            0.0000000000
     26816      4439  TIP3      H1            -13.0021975206      -28.5593705637       45.1262742695  TIP3      4339            0.0000000000
     26817      4439  TIP3      H2            -13.2296521288      -28.0106057982       43.7495288299  TIP3      4339            0.0000000000
     26818      4440  TIP3      OH2           -12.0566554591      -14.6335053082       43.2684100863  TIP3      4340            0.0000000000
     26819      4440  TIP3      H1            -11.8312363293      -13.7535194354       43.6419268323  TIP3      4340            0.0000000000
     26820      4440  TIP3      H2            -11.1621827889      -15.0440991024       43.2988004988  TIP3      4340            0.0000000000
     26821      4441  TIP3      OH2           -16.7007596410      -11.5539412439       44.0387519157  TIP3      4341            0.0000000000
     26822      4441  TIP3      H1            -16.1097651014      -12.2839397914       43.8063432853  TIP3      4341            0.0000000000
     26823      4441  TIP3      H2            -16.7012725280      -11.5629069693       45.0193195373  TIP3      4341            0.0000000000
     26824      4442  TIP3      OH2           -15.4538658930      -19.6644239442       42.8491298158  TIP3      4342            0.0000000000
     26825      4442  TIP3      H1            -15.0061654255      -19.8123639285       41.9943281489  TIP3      4342            0.0000000000
     26826      4442  TIP3      H2            -15.3291252130      -18.7031471447       42.9728005021  TIP3      4342            0.0000000000
     26827      4443  TIP3      OH2           -19.5796993575      -25.4101905819       43.5864275482  TIP3      4343            0.0000000000
     26828      4443  TIP3      H1            -19.6500383646      -25.3108987135       44.5579762358  TIP3      4343            0.0000000000
     26829      4443  TIP3      H2            -19.9615265604      -26.2862224778       43.5069449505  TIP3      4343            0.0000000000
     26830      4444  TIP3      OH2           -23.0733637251      -25.2065179989       41.9304011980  TIP3      4344            0.0000000000
     26831      4444  TIP3      H1            -23.4342153620      -25.5719856153       42.7579841803  TIP3      4344            0.0000000000
     26832      4444  TIP3      H2            -23.5418952410      -24.3628377717       41.8009994011  TIP3      4344            0.0000000000
     26833      4445  TIP3      OH2           -28.5134620237      -25.4791269008       44.3331903519  TIP3      4345            0.0000000000
     26834      4445  TIP3      H1            -27.6104720658      -25.3547818656       43.9862381941  TIP3      4345            0.0000000000
     26835      4445  TIP3      H2            -28.5988595560      -24.7401769130       44.9516757942  TIP3      4345            0.0000000000
     26836      4446  TIP3      OH2           -24.3109652245      -23.1881105415       44.1100206108  TIP3      4346            0.0000000000
     26837      4446  TIP3      H1            -25.1365003129      -23.5007605937       43.6854458436  TIP3      4346            0.0000000000
     26838      4446  TIP3      H2            -23.7989248903      -22.9119289349       43.3307780246  TIP3      4346            0.0000000000
     26839      4447  TIP3      OH2           -16.7600972471      -25.3201614391       43.4995903689  TIP3      4347            0.0000000000
     26840      4447  TIP3      H1            -17.7091999238      -25.5397198325       43.5516361113  TIP3      4347            0.0000000000
     26841      4447  TIP3      H2            -16.6885711771      -24.6003264594       44.1630004311  TIP3      4347            0.0000000000
     26842      4448  TIP3      OH2           -18.5227187052      -16.4929958487       44.0956846034  TIP3      4348            0.0000000000
     26843      4448  TIP3      H1            -18.4450206064      -15.5263664712       44.1616249008  TIP3      4348            0.0000000000
     26844      4448  TIP3      H2            -19.4694889301      -16.6024524091       44.2537765079  TIP3      4348            0.0000000000
     26845      4449  TIP3      OH2           -26.8122990880      -20.3949328189       43.2596901639  TIP3      4349            0.0000000000
     26846      4449  TIP3      H1            -26.4049066848      -20.2226957896       44.1309443560  TIP3      4349            0.0000000000
     26847      4449  TIP3      H2            -27.6950631352      -20.0076790741       43.4111022360  TIP3      4349            0.0000000000
     26848      4450  TIP3      OH2           -15.5153494195      -17.1567151494       43.7510615301  TIP3      4350            0.0000000000
     26849      4450  TIP3      H1            -15.9842943942      -16.9464813419       44.5731498186  TIP3      4350            0.0000000000
     26850      4450  TIP3      H2            -16.2306669672      -17.1017821765       43.0944505839  TIP3      4350            0.0000000000
     26851      4451  TIP3      OH2           -11.4053082281      -12.1092824874       43.8932716425  TIP3      4351            0.0000000000
     26852      4451  TIP3      H1            -10.9437477381      -11.9445843437       43.0429065911  TIP3      4351            0.0000000000
     26853      4451  TIP3      H2            -12.0905568234      -11.4144971141       43.8447154027  TIP3      4351            0.0000000000
     26854      4452  TIP3      OH2           -20.6193185882      -15.7887252753       42.3359630299  TIP3      4352            0.0000000000
     26855      4452  TIP3      H1            -21.1841539882      -15.7784682466       41.5357301932  TIP3      4352            0.0000000000
     26856      4452  TIP3      H2            -21.3383398691      -15.8366984242       42.9977484338  TIP3      4352            0.0000000000
     26857      4453  TIP3      OH2           -22.6658362464      -15.9377908888       44.4651523648  TIP3      4353            0.0000000000
     26858      4453  TIP3      H1            -23.4051001964      -16.4637096734       44.8246614358  TIP3      4353            0.0000000000
     26859      4453  TIP3      H2            -23.0214599977      -15.0171217242       44.5469359307  TIP3      4353            0.0000000000
     26860      4454  TIP3      OH2           -23.8198414387      -26.6220512689       44.6558608726  TIP3      4354            0.0000000000
     26861      4454  TIP3      H1            -24.4647519081      -26.4297516719       45.3720801090  TIP3      4354            0.0000000000
     26862      4454  TIP3      H2            -23.0688687735      -26.0805858144       44.9321919610  TIP3      4354            0.0000000000
     26863      4455  TIP3      OH2           -26.0475853160      -15.2116922167       43.9053546026  TIP3      4355            0.0000000000
     26864      4455  TIP3      H1            -25.8072189381      -14.9258592909       44.8060919704  TIP3      4355            0.0000000000
     26865      4455  TIP3      H2            -25.2500915866      -15.6696767867       43.6075621601  TIP3      4355            0.0000000000
     26866      4456  TIP3      OH2           -27.1852555234      -23.2515214356       42.7128819020  TIP3      4356            0.0000000000
     26867      4456  TIP3      H1            -27.1186830126      -22.2736610153       42.7878295296  TIP3      4356            0.0000000000
     26868      4456  TIP3      H2            -28.1011319745      -23.4208084576       42.9701977788  TIP3      4356            0.0000000000
     26869      4457  TIP3      OH2           -18.8539052075      -13.8774334704       43.0265710839  TIP3      4357            0.0000000000
     26870      4457  TIP3      H1            -19.5027610606      -14.4397718783       42.5400442722  TIP3      4357            0.0000000000
     26871      4457  TIP3      H2            -18.4313135648      -13.3959488822       42.3002579372  TIP3      4357            0.0000000000
     26872      4458  TIP3      OH2           -14.5559026719      -13.7664022570       42.5601709630  TIP3      4358            0.0000000000
     26873      4458  TIP3      H1            -14.7741860168      -14.0382016075       43.4712175114  TIP3      4358            0.0000000000
     26874      4458  TIP3      H2            -13.5945622826      -13.9678886486       42.6056237270  TIP3      4358            0.0000000000
     26875      4459  TIP3      OH2           -24.3620483723      -17.1576778680       42.3372250587  TIP3      4359            0.0000000000
     26876      4459  TIP3      H1            -24.8603784179      -17.5242048275       43.0803198032  TIP3      4359            0.0000000000
     26877      4459  TIP3      H2            -23.6374310314      -17.8287370163       42.2621784633  TIP3      4359            0.0000000000
     26878      4460  TIP3      OH2           -17.8633086226      -17.0496436215       41.4945019274  TIP3      4360            0.0000000000
     26879      4460  TIP3      H1            -18.0390376855      -16.7664366775       42.4203814808  TIP3      4360            0.0000000000
     26880      4460  TIP3      H2            -18.6874223603      -17.5284327578       41.3298425061  TIP3      4360            0.0000000000
     26881      4461  TIP3      OH2           -22.8220287663      -19.3371176503       43.9827750122  TIP3      4361            0.0000000000
     26882      4461  TIP3      H1            -22.8960265068      -20.1696572774       44.4662368789  TIP3      4361            0.0000000000
     26883      4461  TIP3      H2            -22.4187800017      -19.6703260096       43.1570068314  TIP3      4361            0.0000000000
     26884      4462  TIP3      OH2           -21.4731721521      -21.4750370658       42.6341908412  TIP3      4362            0.0000000000
     26885      4462  TIP3      H1            -21.2580739419      -21.6007170540       41.6915602841  TIP3      4362            0.0000000000
     26886      4462  TIP3      H2            -20.6114983699      -21.2451094662       43.0036132163  TIP3      4362            0.0000000000
     26887      4463  TIP3      OH2           -12.0443427550      -18.2900462534       42.0148613251  TIP3      4363            0.0000000000
     26888      4463  TIP3      H1            -12.2916979686      -18.0109648202       41.1204522239  TIP3      4363            0.0000000000
     26889      4463  TIP3      H2            -11.9724251435      -17.4306686829       42.4785265179  TIP3      4363            0.0000000000
     26890      4464  TIP3      OH2           -22.1397516840      -10.5152461918       43.8447658760  TIP3      4364            0.0000000000
     26891      4464  TIP3      H1            -21.1921406799      -10.7607188754       43.8496976018  TIP3      4364            0.0000000000
     26892      4464  TIP3      H2            -22.2471113449      -10.5099629073       42.8719189382  TIP3      4364            0.0000000000
     26893      4465  TIP3      OH2           -28.4259146227      -16.2946207034       43.2967976227  TIP3      4365            0.0000000000
     26894      4465  TIP3      H1            -27.5070752309      -15.9655891938       43.4011178909  TIP3      4365            0.0000000000
     26895      4465  TIP3      H2            -28.5000554244      -16.2910512486       42.3270405205  TIP3      4365            0.0000000000
     26896      4466  TIP3      OH2           -10.5164816761      -20.5512115221       44.0406206390  TIP3      4366            0.0000000000
     26897      4466  TIP3      H1            -11.2849216307      -21.1279831133       43.8685802359  TIP3      4366            0.0000000000
     26898      4466  TIP3      H2            -11.0051020369      -19.7133720377       44.2298269960  TIP3      4366            0.0000000000
     26899      4467  TIP3      OH2           -12.8655939102      -22.8204292017       43.1603054798  TIP3      4367            0.0000000000
     26900      4467  TIP3      H1            -12.7705645617      -22.5870039660       42.2251294245  TIP3      4367            0.0000000000
     26901      4467  TIP3      H2            -13.4586532655      -23.6004183432       43.0540959794  TIP3      4367            0.0000000000
     26902      4468  TIP3      OH2           -13.9573276690      -25.2190599334       42.2937397473  TIP3      4368            0.0000000000
     26903      4468  TIP3      H1            -13.4044376367      -25.7254094692       42.9230190192  TIP3      4368            0.0000000000
     26904      4468  TIP3      H2            -14.8520315827      -25.5539037522       42.4992252768  TIP3      4368            0.0000000000
     26905      4469  TIP3      OH2           -11.9449709476      -26.8284498274       43.2057649417  TIP3      4369            0.0000000000
     26906      4469  TIP3      H1            -11.6823829130      -27.0820722960       42.2946323820  TIP3      4369            0.0000000000
     26907      4469  TIP3      H2            -11.4099468043      -26.0378832494       43.4247796095  TIP3      4369            0.0000000000
     26908      4470  TIP3      OH2           -27.1337675070      -28.5399230256       44.9673866460  TIP3      4370            0.0000000000
     26909      4470  TIP3      H1            -26.8890773310      -27.8830556316       44.2883566830  TIP3      4370            0.0000000000
     26910      4470  TIP3      H2            -28.0992050376      -28.6128858815       44.8237140581  TIP3      4370            0.0000000000
     26911      4471  TIP3      OH2           -26.1588637846      -26.6451488784       43.2231834860  TIP3      4371            0.0000000000
     26912      4471  TIP3      H1            -25.4691952787      -27.3158600847       43.3447030708  TIP3      4371            0.0000000000
     26913      4471  TIP3      H2            -25.8301340540      -25.9988553686       43.8711981805  TIP3      4371            0.0000000000
     26914      4472  TIP3      OH2           -19.5099271166      -11.1171864484       43.7937398868  TIP3      4372            0.0000000000
     26915      4472  TIP3      H1            -18.5432716026      -10.9817886071       43.7682567425  TIP3      4372            0.0000000000
     26916      4472  TIP3      H2            -19.5419138467      -12.0846722690       43.8443964862  TIP3      4372            0.0000000000
     26917      4473  TIP3      OH2           -25.6145541222      -12.0579799362       43.0731676253  TIP3      4373            0.0000000000
     26918      4473  TIP3      H1            -25.5981535341      -11.2204071176       43.5512942406  TIP3      4373            0.0000000000
     26919      4473  TIP3      H2            -26.0780246715      -12.6339473656       43.7104766508  TIP3      4373            0.0000000000
     26920      4474  TIP3      OH2             0.2893942435      -21.9466927237       43.9262737703  TIP3      4374            0.0000000000
     26921      4474  TIP3      H1              1.2289963820      -22.1410130606       44.1458270787  TIP3      4374            0.0000000000
     26922      4474  TIP3      H2              0.2527752817      -22.3748807217       43.0679700469  TIP3      4374            0.0000000000
     26923      4475  TIP3      OH2             5.3201486640      -28.6038624443       44.4002905115  TIP3      4375            0.0000000000
     26924      4475  TIP3      H1              5.4934223150      -28.5661905869       45.3469895389  TIP3      4375            0.0000000000
     26925      4475  TIP3      H2              5.8566056730      -27.8690929480       44.0179137410  TIP3      4375            0.0000000000
     26926      4476  TIP3      OH2             6.7838782453      -14.5776743761       42.9607978762  TIP3      4376            0.0000000000
     26927      4476  TIP3      H1              6.9609662800      -13.7167996996       43.3971090954  TIP3      4376            0.0000000000
     26928      4476  TIP3      H2              7.6319821876      -15.0184904909       43.1838654031  TIP3      4376            0.0000000000
     26929      4477  TIP3      OH2             2.0869100299      -11.5805262929       44.1171267522  TIP3      4377            0.0000000000
     26930      4477  TIP3      H1              2.6837749019      -12.2443628289       43.7336925365  TIP3      4377            0.0000000000
     26931      4477  TIP3      H2              2.3053744783      -11.6243652244       45.0717367491  TIP3      4377            0.0000000000
     26932      4478  TIP3      OH2             3.3557766570      -19.5440304132       42.9290277091  TIP3      4378            0.0000000000
     26933      4478  TIP3      H1              3.7686416126      -19.6314293098       42.0518018946  TIP3      4378            0.0000000000
     26934      4478  TIP3      H2              3.4623658383      -18.5879813336       43.1081137929  TIP3      4378            0.0000000000
     26935      4479  TIP3      OH2            -0.8130737998      -25.1134789131       43.6716765510  TIP3      4379            0.0000000000
     26936      4479  TIP3      H1             -1.5036173991      -24.9833324532       44.3357227422  TIP3      4379            0.0000000000
     26937      4479  TIP3      H2             -1.1513829140      -25.8746448476       43.1910130875  TIP3      4379            0.0000000000
     26938      4480  TIP3      OH2            -4.3202846380      -25.2744621748       42.0117988146  TIP3      4380            0.0000000000
     26939      4480  TIP3      H1             -4.8008738130      -25.6366024071       42.7924504739  TIP3      4380            0.0000000000
     26940      4480  TIP3      H2             -4.7428999300      -24.4032674937       41.8660952725  TIP3      4380            0.0000000000
     26941      4481  TIP3      OH2            -9.9862470733      -25.2943686463       44.2845677345  TIP3      4381            0.0000000000
     26942      4481  TIP3      H1             -9.1270814620      -25.6045688183       43.9374832553  TIP3      4381            0.0000000000
     26943      4481  TIP3      H2             -9.8762876815      -24.3379922456       44.2058278236  TIP3      4381            0.0000000000
     26944      4482  TIP3      OH2            -5.1701760025      -23.0683732962       43.9251810212  TIP3      4382            0.0000000000
     26945      4482  TIP3      H1             -6.0757737685      -23.0191157192       43.5671765514  TIP3      4382            0.0000000000
     26946      4482  TIP3      H2             -4.6587128802      -22.7874975278       43.1495329192  TIP3      4382            0.0000000000
     26947      4483  TIP3      OH2             1.9460973360      -25.2186436800       43.2019720661  TIP3      4383            0.0000000000
     26948      4483  TIP3      H1              1.0039244672      -25.1626587862       43.4900961297  TIP3      4383            0.0000000000
     26949      4483  TIP3      H2              2.3537617761      -24.4646562461       43.6669061501  TIP3      4383            0.0000000000
     26950      4484  TIP3      OH2             0.1953154232      -16.5847238588       44.0967462498  TIP3      4384            0.0000000000
     26951      4484  TIP3      H1              0.3794051621      -15.6307910225       44.1677606878  TIP3      4384            0.0000000000
     26952      4484  TIP3      H2             -0.5656538322      -16.6707187468       44.6858074045  TIP3      4384            0.0000000000
     26953      4485  TIP3      OH2            -8.0217997291      -19.9099201264       43.1882392478  TIP3      4385            0.0000000000
     26954      4485  TIP3      H1             -7.6761737824      -19.8433828670       44.1055130646  TIP3      4385            0.0000000000
     26955      4485  TIP3      H2             -8.9695410355      -20.1202258248       43.3549238746  TIP3      4385            0.0000000000
     26956      4486  TIP3      OH2             3.3065267055      -17.0558894576       43.7114861963  TIP3      4386            0.0000000000
     26957      4486  TIP3      H1              2.9733457958      -16.8573046080       44.5975743567  TIP3      4386            0.0000000000
     26958      4486  TIP3      H2              2.5174738032      -16.9605462450       43.1549032261  TIP3      4386            0.0000000000
     26959      4487  TIP3      OH2             7.4688525579      -12.1593795485       43.8383759264  TIP3      4387            0.0000000000
     26960      4487  TIP3      H1              7.8166537827      -12.0334323119       42.9267893502  TIP3      4387            0.0000000000
     26961      4487  TIP3      H2              6.8668218267      -11.3876058744       43.9164868652  TIP3      4387            0.0000000000
     26962      4488  TIP3      OH2            -1.7986085475      -15.6465719686       42.0809490641  TIP3      4388            0.0000000000
     26963      4488  TIP3      H1             -2.4877786059      -15.7531839551       41.3989304464  TIP3      4388            0.0000000000
     26964      4488  TIP3      H2             -2.3355037493      -15.7055873047       42.8869763799  TIP3      4388            0.0000000000
     26965      4489  TIP3      OH2            -3.7151162685      -15.9104124210       44.5519783586  TIP3      4389            0.0000000000
     26966      4489  TIP3      H1             -4.4871236773      -16.4317574603       44.8437228715  TIP3      4389            0.0000000000
     26967      4489  TIP3      H2             -4.0360442096      -14.9782002656       44.6304951879  TIP3      4389            0.0000000000
     26968      4490  TIP3      OH2            -5.2149141982      -26.4285764954       44.2176800782  TIP3      4390            0.0000000000
     26969      4490  TIP3      H1             -5.7863505318      -26.0275822529       44.8894265717  TIP3      4390            0.0000000000
     26970      4490  TIP3      H2             -4.3504688744      -26.2626875540       44.6176952425  TIP3      4390            0.0000000000
     26971      4491  TIP3      OH2            -7.0749181679      -15.5923616856       43.7838404065  TIP3      4391            0.0000000000
     26972      4491  TIP3      H1             -6.5634830525      -15.0789363829       44.4290341077  TIP3      4391            0.0000000000
     26973      4491  TIP3      H2             -6.4189544894      -16.2161867086       43.4087342829  TIP3      4391            0.0000000000
     26974      4492  TIP3      OH2            -8.4084544726      -23.0781197808       43.1924786457  TIP3      4392            0.0000000000
     26975      4492  TIP3      H1             -8.3328046065      -22.1139584692       43.1107043620  TIP3      4392            0.0000000000
     26976      4492  TIP3      H2             -9.0893543644      -23.2766633617       42.5351324566  TIP3      4392            0.0000000000
     26977      4493  TIP3      OH2            -0.0244098019      -13.9681151419       43.1452819797  TIP3      4393            0.0000000000
     26978      4493  TIP3      H1             -0.6803049620      -14.4448643740       42.5756987877  TIP3      4393            0.0000000000
     26979      4493  TIP3      H2              0.4438963209      -13.4316394681       42.4870614657  TIP3      4393            0.0000000000
     26980      4494  TIP3      OH2             4.2228087200      -13.7686090872       42.6584570101  TIP3      4394            0.0000000000
     26981      4494  TIP3      H1              3.9451327537      -13.9996449440       43.5695979803  TIP3      4394            0.0000000000
     26982      4494  TIP3      H2              5.1589237224      -14.0691917619       42.7337486845  TIP3      4394            0.0000000000
     26983      4495  TIP3      OH2            -5.5154674914      -17.3186909460       42.4172207603  TIP3      4395            0.0000000000
     26984      4495  TIP3      H1             -5.8211093138      -17.9602081009       43.0825278335  TIP3      4395            0.0000000000
     26985      4495  TIP3      H2             -4.8268893364      -17.8874603152       42.0029991697  TIP3      4395            0.0000000000
     26986      4496  TIP3      OH2             0.9548126201      -17.0255323958       41.4995155434  TIP3      4396            0.0000000000
     26987      4496  TIP3      H1              0.6304093354      -16.7123910986       42.3728850954  TIP3      4396            0.0000000000
     26988      4496  TIP3      H2              0.2926153022      -17.7031677158       41.3102115558  TIP3      4396            0.0000000000
     26989      4497  TIP3      OH2            -3.8848997148      -19.3598076050       44.1086478888  TIP3      4397            0.0000000000
     26990      4497  TIP3      H1             -3.9891438659      -20.0502243315       44.7713772409  TIP3      4397            0.0000000000
     26991      4497  TIP3      H2             -3.3901217048      -19.8951334299       43.4648847122  TIP3      4397            0.0000000000
     26992      4498  TIP3      OH2            -2.6354804743      -21.5189925164       42.7229498023  TIP3      4398            0.0000000000
     26993      4498  TIP3      H1             -2.3001729730      -21.9277686726       41.9079967956  TIP3      4398            0.0000000000
     26994      4498  TIP3      H2             -1.8213703571      -21.1332786633       43.0872102153  TIP3      4398            0.0000000000
     26995      4499  TIP3      OH2             6.7030382678      -18.2106801320       42.0305065331  TIP3      4399            0.0000000000
     26996      4499  TIP3      H1              6.3274614986      -18.1041032775       41.1398155594  TIP3      4399            0.0000000000
     26997      4499  TIP3      H2              6.7869154205      -17.2765355019       42.3001213034  TIP3      4399            0.0000000000
     26998      4500  TIP3      OH2            -3.0606006280      -10.4579018496       43.9515382096  TIP3      4400            0.0000000000
     26999      4500  TIP3      H1             -2.0834061800      -10.6465200808       43.9576606870  TIP3      4400            0.0000000000
     27000      4500  TIP3      H2             -3.2265953256      -10.6181006068       43.0006196431  TIP3      4400            0.0000000000
     27001      4501  TIP3      OH2            -9.6239041023      -15.6872843066       43.3825346415  TIP3      4401            0.0000000000
     27002      4501  TIP3      H1             -8.6841338197      -15.4602301824       43.5721280702  TIP3      4401            0.0000000000
     27003      4501  TIP3      H2             -9.5313786215      -16.0669834376       42.4979744626  TIP3      4401            0.0000000000
     27004      4502  TIP3      OH2             8.2290228254      -20.5940476447       44.1408915182  TIP3      4402            0.0000000000
     27005      4502  TIP3      H1              7.5144931357      -21.1817071300       43.8282854241  TIP3      4402            0.0000000000
     27006      4502  TIP3      H2              7.7017560288      -19.7818974474       44.3306606058  TIP3      4402            0.0000000000
     27007      4503  TIP3      OH2             6.1896571793      -22.6725324188       43.1371820290  TIP3      4403            0.0000000000
     27008      4503  TIP3      H1              6.1428761609      -22.3691969741       42.2151395169  TIP3      4403            0.0000000000
     27009      4503  TIP3      H2              5.6438086112      -23.4823841772       43.0634802259  TIP3      4403            0.0000000000
     27010      4504  TIP3      OH2             4.9203753016      -25.2060094816       42.2023038522  TIP3      4404            0.0000000000
     27011      4504  TIP3      H1              5.3745080627      -25.7607411747       42.8723866039  TIP3      4404            0.0000000000
     27012      4504  TIP3      H2              3.9981796569      -25.4956566653       42.2871977019  TIP3      4404            0.0000000000
     27013      4505  TIP3      OH2             6.8918986786      -26.7943502415       43.1958263213  TIP3      4405            0.0000000000
     27014      4505  TIP3      H1              7.0078624617      -26.8275827771       42.2172650543  TIP3      4405            0.0000000000
     27015      4505  TIP3      H2              7.4193359649      -26.0119552530       43.4557626409  TIP3      4405            0.0000000000
     27016      4506  TIP3      OH2            -7.9995369359      -28.9114312981       45.1259512399  TIP3      4406            0.0000000000
     27017      4506  TIP3      H1             -7.7863861059      -28.2350957508       44.4609566779  TIP3      4406            0.0000000000
     27018      4506  TIP3      H2             -8.9485049626      -28.7367599831       45.2733918612  TIP3      4406            0.0000000000
     27019      4507  TIP3      OH2            -7.8746930804      -26.7881679184       43.3590236555  TIP3      4407            0.0000000000
     27020      4507  TIP3      H1             -7.0238411153      -26.9977123701       42.9451101083  TIP3      4407            0.0000000000
     27021      4507  TIP3      H2             -7.5563361716      -26.4255812396       44.2202688156  TIP3      4407            0.0000000000
     27022      4508  TIP3      OH2            -0.5480172516      -11.2911316573       43.8360010621  TIP3      4408            0.0000000000
     27023      4508  TIP3      H1              0.4272097580      -11.1670223628       43.8409091940  TIP3      4408            0.0000000000
     27024      4508  TIP3      H2             -0.6152351774      -12.2439085635       44.0246510752  TIP3      4408            0.0000000000
     27025      4509  TIP3      OH2            -7.2355889110      -11.6961842497       43.1746567207  TIP3      4409            0.0000000000
     27026      4509  TIP3      H1             -7.6123177784      -10.9287677762       43.6385432360  TIP3      4409            0.0000000000
     27027      4509  TIP3      H2             -7.1348335448      -12.2660893127       43.9752680649  TIP3      4409            0.0000000000
     27028      4510  TIP3      OH2            18.8378161496      -21.4331662101       43.9173922164  TIP3      4410            0.0000000000
     27029      4510  TIP3      H1             19.7757076520      -21.4399455671       44.1992300263  TIP3      4410            0.0000000000
     27030      4510  TIP3      H2             18.9122962755      -22.0308382649       43.1660107149  TIP3      4410            0.0000000000
     27031      4511  TIP3      OH2            23.4961084828      -28.9120283163       44.3408271013  TIP3      4411            0.0000000000
     27032      4511  TIP3      H1             24.2131014723      -28.6691223791       44.9472488032  TIP3      4411            0.0000000000
     27033      4511  TIP3      H2             23.7373709560      -28.4084906252       43.5603230274  TIP3      4411            0.0000000000
     27034      4512  TIP3      OH2            25.9743201047      -14.5801868239       42.8808049066  TIP3      4412            0.0000000000
     27035      4512  TIP3      H1             26.1670861985      -13.8378775610       43.4940502177  TIP3      4412            0.0000000000
     27036      4512  TIP3      H2             26.5333274777      -15.2782778090       43.2471535125  TIP3      4412            0.0000000000
     27037      4513  TIP3      OH2            21.1463232227      -11.6105825572       44.1135683832  TIP3      4413            0.0000000000
     27038      4513  TIP3      H1             21.5027995574      -12.4689855016       43.8324866093  TIP3      4413            0.0000000000
     27039      4513  TIP3      H2             21.1519540040      -11.6939180935       45.0961983548  TIP3      4413            0.0000000000
     27040      4514  TIP3      OH2            22.9987077038      -19.7620898324       43.2328562613  TIP3      4414            0.0000000000
     27041      4514  TIP3      H1             22.9344745693      -20.0011955437       42.2969536933  TIP3      4414            0.0000000000
     27042      4514  TIP3      H2             22.7338798146      -18.8132788209       43.2080299546  TIP3      4414            0.0000000000
     27043      4515  TIP3      OH2            18.1103497632      -25.5007618697       43.5308274269  TIP3      4415            0.0000000000
     27044      4515  TIP3      H1             17.3111550137      -25.1731672644       43.9615456147  TIP3      4415            0.0000000000
     27045      4515  TIP3      H2             17.8539933794      -26.3957520591       43.2707164782  TIP3      4415            0.0000000000
     27046      4516  TIP3      OH2            14.4954738832      -25.1858496914       42.0991769286  TIP3      4416            0.0000000000
     27047      4516  TIP3      H1             14.0785487335      -25.6048867543       42.8803072742  TIP3      4416            0.0000000000
     27048      4516  TIP3      H2             14.0319607741      -24.3270879992       42.0385090172  TIP3      4416            0.0000000000
     27049      4517  TIP3      OH2             8.7867984560      -25.2737723987       44.3813961710  TIP3      4417            0.0000000000
     27050      4517  TIP3      H1              9.6348176826      -25.7018460281       44.1295522572  TIP3      4417            0.0000000000
     27051      4517  TIP3      H2              9.0890763320      -24.3570194104       44.4110821502  TIP3      4417            0.0000000000
     27052      4518  TIP3      OH2            13.5874322442      -23.0931392455       43.8504754427  TIP3      4418            0.0000000000
     27053      4518  TIP3      H1             12.6966869181      -23.0288485750       43.4648657493  TIP3      4418            0.0000000000
     27054      4518  TIP3      H2             14.1439711994      -22.6738101301       43.1738658344  TIP3      4418            0.0000000000
     27055      4519  TIP3      OH2            20.8083753518      -25.2428763713       43.6076950079  TIP3      4419            0.0000000000
     27056      4519  TIP3      H1             19.8276122396      -25.2392554847       43.6578316661  TIP3      4419            0.0000000000
     27057      4519  TIP3      H2             21.0254207063      -24.4005937970       44.0455162548  TIP3      4419            0.0000000000
     27058      4520  TIP3      OH2            19.0268190089      -16.7121654411       44.1780353986  TIP3      4420            0.0000000000
     27059      4520  TIP3      H1             19.2147456675      -15.8172824472       44.4981664405  TIP3      4420            0.0000000000
     27060      4520  TIP3      H2             18.1572742212      -16.9034394325       44.5667500833  TIP3      4420            0.0000000000
     27061      4521  TIP3      OH2            10.7292844246      -19.9381861438       43.1959418600  TIP3      4421            0.0000000000
     27062      4521  TIP3      H1             11.0491385658      -19.8447260568       44.1172680825  TIP3      4421            0.0000000000
     27063      4521  TIP3      H2              9.7714267665      -20.1027120354       43.3546842883  TIP3      4421            0.0000000000
     27064      4522  TIP3      OH2            21.9829850429      -17.3501160637       43.6095324430  TIP3      4422            0.0000000000
     27065      4522  TIP3      H1             21.4828999089      -17.3519446714       44.4432722884  TIP3      4422            0.0000000000
     27066      4522  TIP3      H2             21.3044103232      -17.3543179600       42.9221142722  TIP3      4422            0.0000000000
     27067      4523  TIP3      OH2            26.3643084755      -12.1138497830       44.0044338116  TIP3      4423            0.0000000000
     27068      4523  TIP3      H1             26.8019234321      -11.9124370369       43.1429354091  TIP3      4423            0.0000000000
     27069      4523  TIP3      H2             25.5754959610      -11.5401117525       43.8890105399  TIP3      4423            0.0000000000
     27070      4524  TIP3      OH2            16.9995057974      -15.5990789925       42.2383936314  TIP3      4424            0.0000000000
     27071      4524  TIP3      H1             16.3539333592      -15.8057750059       41.5373896737  TIP3      4424            0.0000000000
     27072      4524  TIP3      H2             16.3561229794      -15.3422855634       42.9172911538  TIP3      4424            0.0000000000
     27073      4525  TIP3      OH2            14.8779799138      -15.7885429787       44.6031907651  TIP3      4425            0.0000000000
     27074      4525  TIP3      H1             14.0971949118      -16.2793261911       44.9309682427  TIP3      4425            0.0000000000
     27075      4525  TIP3      H2             14.6118936957      -14.8462665668       44.7486426616  TIP3      4425            0.0000000000
     27076      4526  TIP3      OH2            13.6200191193      -26.4415449698       44.2854566658  TIP3      4426            0.0000000000
     27077      4526  TIP3      H1             13.0336320367      -25.8468631084       44.7715406731  TIP3      4426            0.0000000000
     27078      4526  TIP3      H2             14.4500543438      -26.2204175946       44.7349598059  TIP3      4426            0.0000000000
     27079      4527  TIP3      OH2            11.7763828686      -15.6273364109       43.8268377522  TIP3      4427            0.0000000000
     27080      4527  TIP3      H1             12.2397466872      -15.0997125261       44.4906154499  TIP3      4427            0.0000000000
     27081      4527  TIP3      H2             12.4499011196      -16.2835548144       43.5546213153  TIP3      4427            0.0000000000
     27082      4528  TIP3      OH2            10.3827751124      -22.9481301653       43.2275627986  TIP3      4428            0.0000000000
     27083      4528  TIP3      H1             10.5078944403      -21.9842160855       43.1794450974  TIP3      4428            0.0000000000
     27084      4528  TIP3      H2              9.4267419751      -23.0064259338       43.0656742754  TIP3      4428            0.0000000000
     27085      4529  TIP3      OH2            18.7751387676      -13.8566004032       43.0826672793  TIP3      4429            0.0000000000
     27086      4529  TIP3      H1             18.1980050079      -14.5119861624       42.6221810146  TIP3      4429            0.0000000000
     27087      4529  TIP3      H2             19.1825911517      -13.3917029944       42.3437279423  TIP3      4429            0.0000000000
     27088      4530  TIP3      OH2            23.1870259643      -13.8015183480       42.5801255312  TIP3      4430            0.0000000000
     27089      4530  TIP3      H1             22.9162205481      -14.1587592040       43.4508517552  TIP3      4430            0.0000000000
     27090      4530  TIP3      H2             24.1202856724      -14.1015342019       42.5827554213  TIP3      4430            0.0000000000
     27091      4531  TIP3      OH2            13.2414758950      -17.5367746632       42.4493414891  TIP3      4431            0.0000000000
     27092      4531  TIP3      H1             12.7420789776      -18.0885124602       43.0720687714  TIP3      4431            0.0000000000
     27093      4531  TIP3      H2             13.9603788309      -18.1658474431       42.2103297611  TIP3      4431            0.0000000000
     27094      4532  TIP3      OH2            19.7119581936      -16.8956327473       41.5501576287  TIP3      4432            0.0000000000
     27095      4532  TIP3      H1             19.5559370553      -16.7562365282       42.5121447395  TIP3      4432            0.0000000000
     27096      4532  TIP3      H2             18.7843035942      -17.0651261097       41.2960917138  TIP3      4432            0.0000000000
     27097      4533  TIP3      OH2            14.9790259609      -19.3226846721       44.1766617440  TIP3      4433            0.0000000000
     27098      4533  TIP3      H1             14.8648633404      -20.1404934771       44.6696229161  TIP3      4433            0.0000000000
     27099      4533  TIP3      H2             15.3035237453      -19.7179905411       43.3495045066  TIP3      4433            0.0000000000
     27100      4534  TIP3      OH2            16.1920984591      -21.5318180487       42.6565865258  TIP3      4434            0.0000000000
     27101      4534  TIP3      H1             16.4739130149      -21.7864834979       41.7609470494  TIP3      4434            0.0000000000
     27102      4534  TIP3      H2             17.0470944273      -21.2473224062       43.0351709808  TIP3      4434            0.0000000000
     27103      4535  TIP3      OH2            25.6542336761      -17.8986213987       41.8716084381  TIP3      4435            0.0000000000
     27104      4535  TIP3      H1             25.1805821394      -17.8162190019       41.0326611521  TIP3      4435            0.0000000000
     27105      4535  TIP3      H2             25.6057629964      -16.9884120894       42.2165201070  TIP3      4435            0.0000000000
     27106      4536  TIP3      OH2            15.8030753043      -10.4224697433       43.8460943793  TIP3      4436            0.0000000000
     27107      4536  TIP3      H1             16.7750959719      -10.5814116167       43.8973420859  TIP3      4436            0.0000000000
     27108      4536  TIP3      H2             15.6735353342      -10.6071180794       42.8918073608  TIP3      4436            0.0000000000
     27109      4537  TIP3      OH2             9.1619286952      -15.6890824613       43.3836625748  TIP3      4437            0.0000000000
     27110      4537  TIP3      H1             10.1256252994      -15.5218315500       43.5009774286  TIP3      4437            0.0000000000
     27111      4537  TIP3      H2              9.1692088086      -16.2510191905       42.5913833530  TIP3      4437            0.0000000000
     27112      4538  TIP3      OH2            26.9364382114      -20.6742497184       44.2476656587  TIP3      4438            0.0000000000
     27113      4538  TIP3      H1             26.0930751527      -21.1191445918       44.0818429145  TIP3      4438            0.0000000000
     27114      4538  TIP3      H2             26.6181929226      -19.7651584509       44.4545744880  TIP3      4438            0.0000000000
     27115      4539  TIP3      OH2            25.1284617628      -23.2224713116       42.9769795960  TIP3      4439            0.0000000000
     27116      4539  TIP3      H1             25.0388599817      -22.7391712407       42.1365193712  TIP3      4439            0.0000000000
     27117      4539  TIP3      H2             24.7612552449      -24.0976090089       42.7315220580  TIP3      4439            0.0000000000
     27118      4540  TIP3      OH2            23.9724770661      -25.7222977741       42.2879094140  TIP3      4440            0.0000000000
     27119      4540  TIP3      H1             23.9919144094      -25.8636393645       43.2552785972  TIP3      4440            0.0000000000
     27120      4540  TIP3      H2             23.0167142477      -25.7545617699       42.1251742241  TIP3      4440            0.0000000000
     27121      4541  TIP3      OH2            26.9671203478      -26.9018321005       42.9570731610  TIP3      4441            0.0000000000
     27122      4541  TIP3      H1             26.5082676030      -27.0876745291       42.1053235056  TIP3      4441            0.0000000000
     27123      4541  TIP3      H2             27.7730745713      -26.5099867468       42.6047038891  TIP3      4441            0.0000000000
     27124      4542  TIP3      OH2            10.9201817845      -28.8502703407       45.2914435552  TIP3      4442            0.0000000000
     27125      4542  TIP3      H1             11.0545748987      -28.2525957735       44.5360175862  TIP3      4442            0.0000000000
     27126      4542  TIP3      H2              9.9627723058      -28.7395402772       45.4673891134  TIP3      4442            0.0000000000
     27127      4543  TIP3      OH2            10.9394536854      -26.8331896765       43.2255655671  TIP3      4443            0.0000000000
     27128      4543  TIP3      H1             11.6283143603      -27.1676421884       42.6336893585  TIP3      4443            0.0000000000
     27129      4543  TIP3      H2             11.4826219448      -26.4892621835       43.9648713482  TIP3      4443            0.0000000000
     27130      4544  TIP3      OH2            18.3787402498      -11.1822020515       43.9017916708  TIP3      4444            0.0000000000
     27131      4544  TIP3      H1             19.3452400171      -11.1016398786       43.8312882726  TIP3      4444            0.0000000000
     27132      4544  TIP3      H2             18.3000064955      -12.1544262030       43.9323262612  TIP3      4444            0.0000000000
     27133      4545  TIP3      OH2            11.6741735054      -11.8015191322       43.1612840061  TIP3      4445            0.0000000000
     27134      4545  TIP3      H1             11.2046436516      -10.9925543642       43.4199082721  TIP3      4445            0.0000000000
     27135      4545  TIP3      H2             11.6858994089      -12.2612652396       44.0276514308  TIP3      4445            0.0000000000
     27136      4546  TIP3      OH2            27.3226994680      -24.6201171942       45.1912512310  TIP3      4446            0.0000000000
     27137      4546  TIP3      H1             28.1350605628      -24.5093838139       44.6764462290  TIP3      4446            0.0000000000
     27138      4546  TIP3      H2             26.6862030842      -24.2248955015       44.5754361228  TIP3      4446            0.0000000000
     27139      4547  TIP3      OH2            29.4237784241      -19.9563632285       43.3628555092  TIP3      4447            0.0000000000
     27140      4547  TIP3      H1             29.5651524546      -19.4876640083       44.2080959414  TIP3      4447            0.0000000000
     27141      4547  TIP3      H2             28.4841178505      -20.1945932065       43.5000641092  TIP3      4447            0.0000000000
     27142      4548  TIP3      OH2            28.8058170155      -22.6668996048       43.1390489476  TIP3      4448            0.0000000000
     27143      4548  TIP3      H1             29.2408235068      -21.7932861838       43.1988881472  TIP3      4448            0.0000000000
     27144      4548  TIP3      H2             27.9481399282      -22.3901588248       42.7628157185  TIP3      4448            0.0000000000
     27145      4549  TIP3      OH2            28.0492834363      -16.7939613952       43.8758112487  TIP3      4449            0.0000000000
     27146      4549  TIP3      H1             28.9218437487      -16.3503204489       43.8898673701  TIP3      4449            0.0000000000
     27147      4549  TIP3      H2             28.0252976000      -17.0168329063       42.9239083393  TIP3      4449            0.0000000000
     27148      4550  TIP3      OH2            29.2210090864      -28.2369607009       44.7661667139  TIP3      4450            0.0000000000
     27149      4550  TIP3      H1             29.6840442247      -27.4318785376       44.4569086115  TIP3      4450            0.0000000000
     27150      4550  TIP3      H2             28.4282429890      -27.8262549956       45.1349270230  TIP3      4450            0.0000000000
     27151      4551  TIP3      OH2           -18.7605578452       -2.7662376889       43.7683246638  TIP3      4451            0.0000000000
     27152      4551  TIP3      H1            -17.9488012041       -2.2980666864       43.5093627871  TIP3      4451            0.0000000000
     27153      4551  TIP3      H2            -18.4841096873       -3.6970091393       43.7191494968  TIP3      4451            0.0000000000
     27154      4552  TIP3      OH2           -13.5819415391      -10.3609804584       43.7195314429  TIP3      4452            0.0000000000
     27155      4552  TIP3      H1            -14.0267351760      -10.1618217108       44.5464877577  TIP3      4452            0.0000000000
     27156      4552  TIP3      H2            -12.8776518670       -9.6831471014       43.6575366712  TIP3      4452            0.0000000000
     27157      4553  TIP3      OH2           -12.0506098495        4.2503291530       43.2241010520  TIP3      4453            0.0000000000
     27158      4553  TIP3      H1            -11.9077424840        5.1720396839       43.5457059403  TIP3      4453            0.0000000000
     27159      4553  TIP3      H2            -11.1148112947        3.9282077938       43.3077524189  TIP3      4453            0.0000000000
     27160      4554  TIP3      OH2           -16.7194029203        7.2917717158       44.0427828513  TIP3      4454            0.0000000000
     27161      4554  TIP3      H1            -16.2584537875        6.4919545020       43.7405567414  TIP3      4454            0.0000000000
     27162      4554  TIP3      H2            -16.7119323667        7.2117704077       45.0231280435  TIP3      4454            0.0000000000
     27163      4555  TIP3      OH2           -15.6793809454       -0.7919794127       43.1101196888  TIP3      4455            0.0000000000
     27164      4555  TIP3      H1            -15.3534367637       -0.8721207801       42.2012716203  TIP3      4455            0.0000000000
     27165      4555  TIP3      H2            -15.5108099731        0.1520237207       43.3039488450  TIP3      4455            0.0000000000
     27166      4556  TIP3      OH2           -19.5146457891       -6.1796278961       43.6211622788  TIP3      4456            0.0000000000
     27167      4556  TIP3      H1            -19.6925150287       -6.4669837570       44.5498516786  TIP3      4456            0.0000000000
     27168      4556  TIP3      H2            -20.2223481991       -6.6066358824       43.1189243199  TIP3      4456            0.0000000000
     27169      4557  TIP3      OH2           -23.0815744097       -6.5650289942       42.1603487840  TIP3      4457            0.0000000000
     27170      4557  TIP3      H1            -23.5399122103       -7.0055888782       42.9157767527  TIP3      4457            0.0000000000
     27171      4557  TIP3      H2            -23.6198871577       -5.7667926084       42.0381366005  TIP3      4457            0.0000000000
     27172      4558  TIP3      OH2           -28.6837905610       -6.6499542780       44.2767397963  TIP3      4458            0.0000000000
     27173      4558  TIP3      H1            -28.0754294799       -6.1353751414       43.7108136224  TIP3      4458            0.0000000000
     27174      4558  TIP3      H2            -28.5233067839       -6.2613742038       45.1446286498  TIP3      4458            0.0000000000
     27175      4559  TIP3      OH2           -24.2435793394       -3.8759443037       43.8827795383  TIP3      4459            0.0000000000
     27176      4559  TIP3      H1            -25.1242700496       -3.8958353869       43.4609687592  TIP3      4459            0.0000000000
     27177      4559  TIP3      H2            -23.6695564134       -3.8342368297       43.1019509736  TIP3      4459            0.0000000000
     27178      4560  TIP3      OH2           -16.8135582714       -6.0148310484       43.4980018991  TIP3      4460            0.0000000000
     27179      4560  TIP3      H1            -17.7911972522       -6.1044340022       43.5601489230  TIP3      4460            0.0000000000
     27180      4560  TIP3      H2            -16.6363361933       -5.2405541441       44.0763806420  TIP3      4460            0.0000000000
     27181      4561  TIP3      OH2           -18.6521267798        2.1938158202       44.1831601096  TIP3      4461            0.0000000000
     27182      4561  TIP3      H1            -18.5701210783        3.1602823297       44.1049047685  TIP3      4461            0.0000000000
     27183      4561  TIP3      H2            -19.4098313533        2.1186565908       44.7885416301  TIP3      4461            0.0000000000
     27184      4562  TIP3      OH2           -26.8123343115       -1.4713499743       43.2075094068  TIP3      4462            0.0000000000
     27185      4562  TIP3      H1            -26.4765968521       -1.3900844669       44.1266749451  TIP3      4462            0.0000000000
     27186      4562  TIP3      H2            -27.7316385905       -1.1682838705       43.3250192830  TIP3      4462            0.0000000000
     27187      4563  TIP3      OH2           -15.5334624902        1.9000818871       43.6087095543  TIP3      4463            0.0000000000
     27188      4563  TIP3      H1            -15.8181228311        2.0442428799       44.5291709933  TIP3      4463            0.0000000000
     27189      4563  TIP3      H2            -16.3822730975        1.9026446552       43.1326514321  TIP3      4463            0.0000000000
     27190      4564  TIP3      OH2           -11.4491387072        6.8186138395       43.9147308043  TIP3      4464            0.0000000000
     27191      4564  TIP3      H1            -10.9128106884        7.0775672184       43.1437360108  TIP3      4464            0.0000000000
     27192      4564  TIP3      H2            -12.1276254911        7.5309842954       43.9064137891  TIP3      4464            0.0000000000
     27193      4565  TIP3      OH2           -20.8281087381        3.3636980522       42.2008325655  TIP3      4465            0.0000000000
     27194      4565  TIP3      H1            -21.4598231090        3.5748353316       41.4814327904  TIP3      4465            0.0000000000
     27195      4565  TIP3      H2            -21.4666691672        3.2850087247       42.9318362333  TIP3      4465            0.0000000000
     27196      4566  TIP3      OH2           -22.6677661190        3.1009527037       44.5933398690  TIP3      4466            0.0000000000
     27197      4566  TIP3      H1            -23.3102207414        2.5509506086       45.0874015133  TIP3      4466            0.0000000000
     27198      4566  TIP3      H2            -23.0343681636        4.0121143578       44.7699209765  TIP3      4466            0.0000000000
     27199      4567  TIP3      OH2           -24.3105327577       -7.5606640368       44.3341399581  TIP3      4467            0.0000000000
     27200      4567  TIP3      H1            -24.9114304318       -7.1895870751       45.0203857717  TIP3      4467            0.0000000000
     27201      4567  TIP3      H2            -23.4553704891       -7.5284946886       44.7998738401  TIP3      4467            0.0000000000
     27202      4568  TIP3      OH2           -25.7856802319        3.5810325637       43.7183552349  TIP3      4468            0.0000000000
     27203      4568  TIP3      H1            -25.5973856964        3.7335737144       44.6624641769  TIP3      4468            0.0000000000
     27204      4568  TIP3      H2            -25.1844681527        2.8422671119       43.5016590368  TIP3      4468            0.0000000000
     27205      4569  TIP3      OH2           -27.4151668849       -4.5348316040       42.7750886383  TIP3      4469            0.0000000000
     27206      4569  TIP3      H1            -27.2547428575       -3.5793936871       42.7914016839  TIP3      4469            0.0000000000
     27207      4569  TIP3      H2            -28.3649483804       -4.5549331816       42.9716528006  TIP3      4469            0.0000000000
     27208      4570  TIP3      OH2           -18.7056843420        4.8610424979       43.1202180276  TIP3      4470            0.0000000000
     27209      4570  TIP3      H1            -19.3996011610        4.4130396996       42.5811244027  TIP3      4470            0.0000000000
     27210      4570  TIP3      H2            -18.2045756022        5.3093303869       42.4187412713  TIP3      4470            0.0000000000
     27211      4571  TIP3      OH2           -14.5051180779        5.1350509585       42.6237782600  TIP3      4471            0.0000000000
     27212      4571  TIP3      H1            -14.6671146568        4.6339559229       43.4452731375  TIP3      4471            0.0000000000
     27213      4571  TIP3      H2            -13.5367394160        4.9768452010       42.5780117949  TIP3      4471            0.0000000000
     27214      4572  TIP3      OH2           -24.0624210796        1.7230378966       42.3503495892  TIP3      4472            0.0000000000
     27215      4572  TIP3      H1            -23.4987106491        1.6255584113       43.1371613785  TIP3      4472            0.0000000000
     27216      4572  TIP3      H2            -23.9590542062        0.8555400194       41.9114650601  TIP3      4472            0.0000000000
     27217      4573  TIP3      OH2           -18.1177272802        1.6783394926       41.5821853895  TIP3      4473            0.0000000000
     27218      4573  TIP3      H1            -18.3141261794        1.9456638684       42.5070144425  TIP3      4473            0.0000000000
     27219      4573  TIP3      H2            -18.9932821992        1.3298668027       41.3351194319  TIP3      4473            0.0000000000
     27220      4574  TIP3      OH2           -23.0348601901       -0.6501385478       44.1028675687  TIP3      4474            0.0000000000
     27221      4574  TIP3      H1            -23.2048179058       -1.3317041683       44.7664945724  TIP3      4474            0.0000000000
     27222      4574  TIP3      H2            -22.3968665427       -1.1711616175       43.5599351050  TIP3      4474            0.0000000000
     27223      4575  TIP3      OH2           -21.5545632908       -2.4546315684       42.7743241633  TIP3      4475            0.0000000000
     27224      4575  TIP3      H1            -21.2998147064       -2.7956378912       41.9038500963  TIP3      4475            0.0000000000
     27225      4575  TIP3      H2            -20.6688710626       -2.3965096421       43.2007186900  TIP3      4475            0.0000000000
     27226      4576  TIP3      OH2           -12.2074099149        1.0338748705       42.1334496222  TIP3      4476            0.0000000000
     27227      4576  TIP3      H1            -12.9502492665        1.1660814851       41.5325914820  TIP3      4476            0.0000000000
     27228      4576  TIP3      H2            -11.8872539951        1.9513994465       42.2717276392  TIP3      4476            0.0000000000
     27229      4577  TIP3      OH2           -22.0596032512        8.2754848993       43.9242259393  TIP3      4477            0.0000000000
     27230      4577  TIP3      H1            -21.1280066935        7.9919503239       43.7801118262  TIP3      4477            0.0000000000
     27231      4577  TIP3      H2            -22.3241418704        8.2970978006       42.9856970004  TIP3      4477            0.0000000000
     27232      4578  TIP3      OH2           -28.4031882045        2.7401110663       43.5701822905  TIP3      4478            0.0000000000
     27233      4578  TIP3      H1            -27.4857382829        3.0848353504       43.6626312197  TIP3      4478            0.0000000000
     27234      4578  TIP3      H2            -28.4362356418        2.5467646686       42.6130149605  TIP3      4478            0.0000000000
     27235      4579  TIP3      OH2           -10.6624727145       -1.5676424036       43.9560491616  TIP3      4479            0.0000000000
     27236      4579  TIP3      H1            -11.4555290365       -2.0784340123       43.7267438286  TIP3      4479            0.0000000000
     27237      4579  TIP3      H2            -11.0644323148       -0.8344679744       44.4857352601  TIP3      4479            0.0000000000
     27238      4580  TIP3      OH2           -12.3895618976       -4.2941617613       43.0585070526  TIP3      4480            0.0000000000
     27239      4580  TIP3      H1            -12.5581490066       -3.9734460518       42.1616150468  TIP3      4480            0.0000000000
     27240      4580  TIP3      H2            -12.7409719145       -5.2104519369       42.9916904456  TIP3      4480            0.0000000000
     27241      4581  TIP3      OH2           -13.6811251274       -6.6667127793       42.3085901772  TIP3      4481            0.0000000000
     27242      4581  TIP3      H1            -13.4665046903       -7.1223550415       43.1471845030  TIP3      4481            0.0000000000
     27243      4581  TIP3      H2            -14.6433307043       -6.5429372690       42.4218415644  TIP3      4481            0.0000000000
     27244      4582  TIP3      OH2           -11.4449178387       -8.6646403841       43.1155125710  TIP3      4482            0.0000000000
     27245      4582  TIP3      H1            -11.7229464281       -8.2690246273       42.2606710172  TIP3      4482            0.0000000000
     27246      4582  TIP3      H2            -10.8303306503       -7.9768794010       43.4413928517  TIP3      4482            0.0000000000
     27247      4583  TIP3      OH2           -27.3111193887       -9.7193648972       45.4713055559  TIP3      4483            0.0000000000
     27248      4583  TIP3      H1            -27.1991658696       -9.3304324686       44.5809183396  TIP3      4483            0.0000000000
     27249      4583  TIP3      H2            -28.2889575881       -9.7409919800       45.5063454014  TIP3      4483            0.0000000000
     27250      4584  TIP3      OH2           -26.5245495056       -8.5224092923       43.0358632996  TIP3      4484            0.0000000000
     27251      4584  TIP3      H1            -25.5911477800       -8.7743102012       43.1754502777  TIP3      4484            0.0000000000
     27252      4584  TIP3      H2            -26.5615219568       -7.7197833936       43.5782259437  TIP3      4484            0.0000000000
     27253      4585  TIP3      OH2           -19.4996137389        7.6508322678       43.2972801791  TIP3      4485            0.0000000000
     27254      4585  TIP3      H1            -18.6022438228        7.8220938008       43.6448319625  TIP3      4485            0.0000000000
     27255      4585  TIP3      H2            -19.5209925820        6.6867799354       43.3324695589  TIP3      4485            0.0000000000
     27256      4586  TIP3      OH2           -25.6784712833        6.7115220653       43.0221739539  TIP3      4486            0.0000000000
     27257      4586  TIP3      H1            -25.8273842754        7.6243323994       43.3011222739  TIP3      4486            0.0000000000
     27258      4586  TIP3      H2            -26.0772210057        6.2336841738       43.7690419750  TIP3      4486            0.0000000000
     27259      4587  TIP3      OH2             0.3231887006       -3.0418242165       43.8967403843  TIP3      4487            0.0000000000
     27260      4587  TIP3      H1              1.1435144640       -2.6235212808       43.5855324312  TIP3      4487            0.0000000000
     27261      4587  TIP3      H2              0.4020644176       -3.9567897190       43.5716261826  TIP3      4487            0.0000000000
     27262      4588  TIP3      OH2             5.3997673461      -10.4381089507       43.7756696274  TIP3      4488            0.0000000000
     27263      4588  TIP3      H1              4.8171136420      -10.0236487763       44.4212740438  TIP3      4488            0.0000000000
     27264      4588  TIP3      H2              5.9488425543       -9.6761079118       43.4902330552  TIP3      4488            0.0000000000
     27265      4589  TIP3      OH2             6.8456689076        4.3667332661       43.2688279880  TIP3      4489            0.0000000000
     27266      4589  TIP3      H1              7.0110301324        5.2697584871       43.6128894485  TIP3      4489            0.0000000000
     27267      4589  TIP3      H2              7.7040241210        3.9390511808       43.5102904944  TIP3      4489            0.0000000000
     27268      4590  TIP3      OH2             2.2468491492        7.2078323119       44.0324560356  TIP3      4490            0.0000000000
     27269      4590  TIP3      H1              2.7874035277        6.4569225979       43.7283365789  TIP3      4490            0.0000000000
     27270      4590  TIP3      H2              2.3508841807        7.1650066354       45.0047893122  TIP3      4490            0.0000000000
     27271      4591  TIP3      OH2             3.6160911351       -0.8056234733       42.9841636337  TIP3      4491            0.0000000000
     27272      4591  TIP3      H1              3.8479158003       -1.0225600440       42.0633665179  TIP3      4491            0.0000000000
     27273      4591  TIP3      H2              3.5611264267        0.1678575906       42.9613788573  TIP3      4491            0.0000000000
     27274      4592  TIP3      OH2            -0.8442699881       -5.9422237245       43.6116181172  TIP3      4492            0.0000000000
     27275      4592  TIP3      H1             -0.7846179285       -6.2209189934       44.5521904209  TIP3      4492            0.0000000000
     27276      4592  TIP3      H2             -1.2054429218       -6.7383669610       43.2049667336  TIP3      4492            0.0000000000
     27277      4593  TIP3      OH2            -4.3600412331       -6.4454730185       42.3180269144  TIP3      4493            0.0000000000
     27278      4593  TIP3      H1             -4.8130700271       -6.9019904577       43.0402928960  TIP3      4493            0.0000000000
     27279      4593  TIP3      H2             -4.3632649525       -5.5284937348       42.6406180987  TIP3      4493            0.0000000000
     27280      4594  TIP3      OH2           -10.0441838603       -6.5275662105       44.2853645749  TIP3      4494            0.0000000000
     27281      4594  TIP3      H1             -9.1439054789       -6.4293189359       43.9290562291  TIP3      4494            0.0000000000
     27282      4594  TIP3      H2            -10.2812641380       -5.6040401551       44.4396005457  TIP3      4494            0.0000000000
     27283      4595  TIP3      OH2            -5.1532134716       -3.9088529989       43.6860630124  TIP3      4495            0.0000000000
     27284      4595  TIP3      H1             -5.9560712327       -3.8871164982       43.1290505996  TIP3      4495            0.0000000000
     27285      4595  TIP3      H2             -4.5442694238       -3.3756918464       43.1398554059  TIP3      4495            0.0000000000
     27286      4596  TIP3      OH2             1.8258790255       -6.1824124234       43.2509059190  TIP3      4496            0.0000000000
     27287      4596  TIP3      H1              0.8859055592       -6.1383635771       43.5280808784  TIP3      4496            0.0000000000
     27288      4596  TIP3      H2              2.2542380873       -5.4222953098       43.7078699075  TIP3      4496            0.0000000000
     27289      4597  TIP3      OH2             0.2198134837        2.4062496534       44.0317662940  TIP3      4497            0.0000000000
     27290      4597  TIP3      H1              0.1387801990        3.3728515216       43.9738984948  TIP3      4497            0.0000000000
     27291      4597  TIP3      H2             -0.6109349231        2.1551013291       44.4566601949  TIP3      4497            0.0000000000
     27292      4598  TIP3      OH2            -8.0692822361       -1.1002948905       43.2901612018  TIP3      4498            0.0000000000
     27293      4598  TIP3      H1             -7.8261827461       -0.9839185859       44.2289694702  TIP3      4498            0.0000000000
     27294      4598  TIP3      H2             -9.0250184268       -1.3055634672       43.3905419057  TIP3      4498            0.0000000000
     27295      4599  TIP3      OH2             3.1306269685        1.7242422380       43.7876022315  TIP3      4499            0.0000000000
     27296      4599  TIP3      H1              2.7361630516        1.9393767562       44.6475646884  TIP3      4499            0.0000000000
     27297      4599  TIP3      H2              2.3819650778        1.8913185802       43.1911592857  TIP3      4499            0.0000000000
     27298      4600  TIP3      OH2             7.4329790455        6.8460132587       43.8934364744  TIP3      4500            0.0000000000
     27299      4600  TIP3      H1              7.8348192445        6.9967722494       43.0140201198  TIP3      4500            0.0000000000
     27300      4600  TIP3      H2              6.7571562906        7.5505529053       43.9018406603  TIP3      4500            0.0000000000
     27301      4601  TIP3      OH2            -1.9202885461        3.3991082389       42.3201196652  TIP3      4501            0.0000000000
     27302      4601  TIP3      H1             -2.4977595007        3.2215884581       41.5532086543  TIP3      4501            0.0000000000
     27303      4601  TIP3      H2             -2.6102288519        3.4745123254       42.9976855761  TIP3      4501            0.0000000000
     27304      4602  TIP3      OH2            -3.9283879315        3.0593436455       44.5323623628  TIP3      4502            0.0000000000
     27305      4602  TIP3      H1             -4.6773038517        2.5012527411       44.8220877982  TIP3      4502            0.0000000000
     27306      4602  TIP3      H2             -4.2180647419        3.9786403560       44.7529962254  TIP3      4502            0.0000000000
     27307      4603  TIP3      OH2            -5.7382920647       -7.5838385960       44.7421029527  TIP3      4503            0.0000000000
     27308      4603  TIP3      H1             -5.2658959935       -6.8178017952       45.1525845276  TIP3      4503            0.0000000000
     27309      4603  TIP3      H2             -5.0527278111       -8.2813412897       44.8129113950  TIP3      4503            0.0000000000
     27310      4604  TIP3      OH2            -7.0714888938        3.3910623471       43.9099400805  TIP3      4504            0.0000000000
     27311      4604  TIP3      H1             -6.5471488440        3.6956983177       44.6591614338  TIP3      4504            0.0000000000
     27312      4604  TIP3      H2             -6.4118430111        2.9117858543       43.3712038489  TIP3      4504            0.0000000000
     27313      4605  TIP3      OH2            -8.5564117990       -3.9830847066       43.0875291333  TIP3      4505            0.0000000000
     27314      4605  TIP3      H1             -8.0576495741       -3.5490933632       43.8032348042  TIP3      4505            0.0000000000
     27315      4605  TIP3      H2             -9.3814634173       -3.4648492095       43.0870776233  TIP3      4505            0.0000000000
     27316      4606  TIP3      OH2             0.0817689184        5.0610028646       43.0396098779  TIP3      4506            0.0000000000
     27317      4606  TIP3      H1             -0.5422208093        4.5789088167       42.4539194348  TIP3      4506            0.0000000000
     27318      4606  TIP3      H2              0.4821502943        5.6864676279       42.4143947059  TIP3      4506            0.0000000000
     27319      4607  TIP3      OH2             4.2652707166        5.1504961982       42.6665916120  TIP3      4507            0.0000000000
     27320      4607  TIP3      H1              4.0567491392        4.6670165996       43.4882787569  TIP3      4507            0.0000000000
     27321      4607  TIP3      H2              5.1984278855        4.8530564895       42.5920366808  TIP3      4507            0.0000000000
     27322      4608  TIP3      OH2            -5.2859450757        1.8216649580       42.4347594580  TIP3      4508            0.0000000000
     27323      4608  TIP3      H1             -5.6112347011        1.2288964353       43.1414336248  TIP3      4508            0.0000000000
     27324      4608  TIP3      H2             -4.6824959705        1.1726273676       42.0217254994  TIP3      4508            0.0000000000
     27325      4609  TIP3      OH2             0.8216224242        1.9709599422       41.4878434689  TIP3      4509            0.0000000000
     27326      4609  TIP3      H1              0.5815035588        2.2302050866       42.4119546368  TIP3      4509            0.0000000000
     27327      4609  TIP3      H2             -0.0106816531        1.5610395810       41.2356142873  TIP3      4509            0.0000000000
     27328      4610  TIP3      OH2            -3.9267439847       -0.6164576209       44.1894826460  TIP3      4510            0.0000000000
     27329      4610  TIP3      H1             -3.8378163831       -1.3227706297       44.8461684629  TIP3      4510            0.0000000000
     27330      4610  TIP3      H2             -3.4895673281       -1.1007221102       43.4641852572  TIP3      4510            0.0000000000
     27331      4611  TIP3      OH2            -2.7524731646       -2.5342485721       42.6970222632  TIP3      4511            0.0000000000
     27332      4611  TIP3      H1             -2.2985311970       -2.7571080090       41.8679189994  TIP3      4511            0.0000000000
     27333      4611  TIP3      H2             -2.0018601551       -2.5468052116       43.3243163479  TIP3      4511            0.0000000000
     27334      4612  TIP3      OH2             6.7086985155        0.7221035387       41.9390274775  TIP3      4512            0.0000000000
     27335      4612  TIP3      H1              6.2540884794        0.8497904651       41.0935513227  TIP3      4512            0.0000000000
     27336      4612  TIP3      H2              6.8333573574        1.6324009693       42.2605552355  TIP3      4512            0.0000000000
     27337      4613  TIP3      OH2            -3.0450599888        8.2676084665       43.9870350096  TIP3      4513            0.0000000000
     27338      4613  TIP3      H1             -2.0579408791        8.2795537401       43.9150221610  TIP3      4513            0.0000000000
     27339      4613  TIP3      H2             -3.2623189017        8.2140285219       43.0317322511  TIP3      4513            0.0000000000
     27340      4614  TIP3      OH2            -9.6308207982        3.2422733596       43.2536287267  TIP3      4514            0.0000000000
     27341      4614  TIP3      H1             -8.7073252326        3.4201703560       43.5448578794  TIP3      4514            0.0000000000
     27342      4614  TIP3      H2             -9.4758992794        2.7170098610       42.4534545033  TIP3      4514            0.0000000000
     27343      4615  TIP3      OH2             8.2397020667       -1.5333422661       43.9286124920  TIP3      4515            0.0000000000
     27344      4615  TIP3      H1              7.4512338170       -2.0795718511       43.7700330877  TIP3      4515            0.0000000000
     27345      4615  TIP3      H2              7.8340450043       -0.6823118289       44.2167488641  TIP3      4515            0.0000000000
     27346      4616  TIP3      OH2             6.4998146278       -3.8882311042       43.3833297534  TIP3      4516            0.0000000000
     27347      4616  TIP3      H1              6.4625914398       -3.6638851621       42.4395629823  TIP3      4516            0.0000000000
     27348      4616  TIP3      H2              6.3182190120       -4.8407179162       43.3522170803  TIP3      4516            0.0000000000
     27349      4617  TIP3      OH2             4.9656635926       -6.5232227021       42.2244939330  TIP3      4517            0.0000000000
     27350      4617  TIP3      H1              5.4750622166       -7.0419105825       42.8750032833  TIP3      4517            0.0000000000
     27351      4617  TIP3      H2              4.0711193763       -6.4982622596       42.6180907329  TIP3      4517            0.0000000000
     27352      4618  TIP3      OH2             7.0500833476       -8.3734192245       43.1255015833  TIP3      4518            0.0000000000
     27353      4618  TIP3      H1              7.2370874280       -8.3885795351       42.1534045411  TIP3      4518            0.0000000000
     27354      4618  TIP3      H2              7.7592593561       -7.7639406285       43.4340869134  TIP3      4518            0.0000000000
     27355      4619  TIP3      OH2            -8.6538215559       -9.9790362959       44.9631230116  TIP3      4519            0.0000000000
     27356      4619  TIP3      H1             -8.5296639038       -9.2887745067       44.2836601531  TIP3      4519            0.0000000000
     27357      4619  TIP3      H2             -8.3711913786       -9.4950939397       45.7677672867  TIP3      4519            0.0000000000
     27358      4620  TIP3      OH2            -7.8591749972       -8.0577429110       43.1618099079  TIP3      4520            0.0000000000
     27359      4620  TIP3      H1             -7.4309460728       -8.4949362093       42.4177433921  TIP3      4520            0.0000000000
     27360      4620  TIP3      H2             -7.0718878369       -7.7680721405       43.6689336612  TIP3      4520            0.0000000000
     27361      4621  TIP3      OH2            -0.4777078988        7.7675546110       43.8660564060  TIP3      4521            0.0000000000
     27362      4621  TIP3      H1              0.4947587096        7.7061754793       43.8108284694  TIP3      4521            0.0000000000
     27363      4621  TIP3      H2             -0.6993851326        6.8390717224       44.0737212694  TIP3      4521            0.0000000000
     27364      4622  TIP3      OH2            -7.3110169692        6.9985463937       42.7839694868  TIP3      4522            0.0000000000
     27365      4622  TIP3      H1             -7.4028390347        7.6728363998       43.4700641484  TIP3      4522            0.0000000000
     27366      4622  TIP3      H2             -7.6104375866        6.2223647736       43.2835689783  TIP3      4522            0.0000000000
     27367      4623  TIP3      OH2            18.8502316365       -2.7143172861       43.8618266072  TIP3      4523            0.0000000000
     27368      4623  TIP3      H1             19.7753399326       -2.6049639335       44.1521281721  TIP3      4523            0.0000000000
     27369      4623  TIP3      H2             18.9443850054       -3.3667163559       43.1559134633  TIP3      4523            0.0000000000
     27370      4624  TIP3      OH2            24.3202166757      -10.3587107560       44.0597051166  TIP3      4524            0.0000000000
     27371      4624  TIP3      H1             23.4560338465      -10.2661281049       44.4746401643  TIP3      4524            0.0000000000
     27372      4624  TIP3      H2             24.6901748146       -9.4648335658       44.0529515401  TIP3      4524            0.0000000000
     27373      4625  TIP3      OH2            26.2027496432        4.3429156613       42.7832649555  TIP3      4525            0.0000000000
     27374      4625  TIP3      H1             26.3555213840        5.0712315224       43.4233790341  TIP3      4525            0.0000000000
     27375      4625  TIP3      H2             26.6214922766        3.6053178072       43.2599712820  TIP3      4525            0.0000000000
     27376      4626  TIP3      OH2            20.9251848383        7.2650843086       44.0263270393  TIP3      4526            0.0000000000
     27377      4626  TIP3      H1             21.2967249441        6.3993170324       43.7871804494  TIP3      4526            0.0000000000
     27378      4626  TIP3      H2             20.8520089812        7.1931552641       44.9982265860  TIP3      4526            0.0000000000
     27379      4627  TIP3      OH2            22.9931134684       -0.8293062133       43.1788630506  TIP3      4527            0.0000000000
     27380      4627  TIP3      H1             22.9605671162       -1.1156038728       42.2509016007  TIP3      4527            0.0000000000
     27381      4627  TIP3      H2             22.8078445041        0.1304312387       43.1123179142  TIP3      4527            0.0000000000
     27382      4628  TIP3      OH2            18.2089403437       -6.1264700258       43.6327519741  TIP3      4528            0.0000000000
     27383      4628  TIP3      H1             18.1514774751       -6.4551179094       44.5602607926  TIP3      4528            0.0000000000
     27384      4628  TIP3      H2             17.5951646027       -6.7015324257       43.1563103064  TIP3      4528            0.0000000000
     27385      4629  TIP3      OH2            14.4724976689       -6.5594441712       42.3146707219  TIP3      4529            0.0000000000
     27386      4629  TIP3      H1             14.0863798693       -6.8374110637       43.1608755067  TIP3      4529            0.0000000000
     27387      4629  TIP3      H2             14.1875528003       -5.6333380067       42.2702939716  TIP3      4529            0.0000000000
     27388      4630  TIP3      OH2             8.8179050596       -6.6503611365       44.3147056552  TIP3      4530            0.0000000000
     27389      4630  TIP3      H1              9.5931180312       -6.7232645691       43.7142941281  TIP3      4530            0.0000000000
     27390      4630  TIP3      H2              8.9659156652       -5.7667622595       44.6889045388  TIP3      4530            0.0000000000
     27391      4631  TIP3      OH2            13.7157952993       -3.9313403902       43.8136597692  TIP3      4531            0.0000000000
     27392      4631  TIP3      H1             12.8964117194       -3.8218597061       43.2982727687  TIP3      4531            0.0000000000
     27393      4631  TIP3      H2             14.3726455466       -3.6373846679       43.1517720948  TIP3      4531            0.0000000000
     27394      4632  TIP3      OH2            20.7360820914       -5.5833723790       43.2287727325  TIP3      4532            0.0000000000
     27395      4632  TIP3      H1             19.7994198696       -5.8508564873       43.3767705987  TIP3      4532            0.0000000000
     27396      4632  TIP3      H2             20.8152289408       -4.9027640177       43.9300652102  TIP3      4532            0.0000000000
     27397      4633  TIP3      OH2            19.0493388277        2.1875988705       44.0113098593  TIP3      4533            0.0000000000
     27398      4633  TIP3      H1             19.2297369582        3.1277644245       44.1759934536  TIP3      4533            0.0000000000
     27399      4633  TIP3      H2             18.2217934989        2.0631585990       44.4991088616  TIP3      4533            0.0000000000
     27400      4634  TIP3      OH2            10.8396030499       -1.2533311470       43.2058459683  TIP3      4534            0.0000000000
     27401      4634  TIP3      H1             11.1509298361       -1.0638643395       44.1143786563  TIP3      4534            0.0000000000
     27402      4634  TIP3      H2              9.8676492218       -1.3121414655       43.3642082404  TIP3      4534            0.0000000000
     27403      4635  TIP3      OH2            22.1880321685        1.7510846908       43.8140337171  TIP3      4535            0.0000000000
     27404      4635  TIP3      H1             21.8965369742        1.2536480381       44.6004749319  TIP3      4535            0.0000000000
     27405      4635  TIP3      H2             21.3602657311        2.1158244493       43.4770250692  TIP3      4535            0.0000000000
     27406      4636  TIP3      OH2            26.2244131241        6.7802344218       44.0646879039  TIP3      4536            0.0000000000
     27407      4636  TIP3      H1             26.6918973324        7.0446995207       43.2435460438  TIP3      4536            0.0000000000
     27408      4636  TIP3      H2             25.4423121633        7.3689184545       43.9933044827  TIP3      4536            0.0000000000
     27409      4637  TIP3      OH2            16.9476764127        3.1736046566       42.0529402779  TIP3      4537            0.0000000000
     27410      4637  TIP3      H1             16.2234703235        3.3140645193       41.4125278289  TIP3      4537            0.0000000000
     27411      4637  TIP3      H2             16.4022459102        3.0415825918       42.8546384689  TIP3      4537            0.0000000000
     27412      4638  TIP3      OH2            14.9874417208        2.9305056910       44.3733117069  TIP3      4538            0.0000000000
     27413      4638  TIP3      H1             14.2736210432        2.3395558317       44.6870921486  TIP3      4538            0.0000000000
     27414      4638  TIP3      H2             14.5986339453        3.8334867853       44.4824677567  TIP3      4538            0.0000000000
     27415      4639  TIP3      OH2            13.0063682203       -7.3216896580       44.7570782825  TIP3      4539            0.0000000000
     27416      4639  TIP3      H1             13.3172946568       -6.5100219319       45.1961402661  TIP3      4539            0.0000000000
     27417      4639  TIP3      H2             13.8020611984       -7.8664195158       44.8860340153  TIP3      4539            0.0000000000
     27418      4640  TIP3      OH2            11.6656174727        3.3877085861       44.0076577035  TIP3      4540            0.0000000000
     27419      4640  TIP3      H1             11.9701873314        3.6167496581       44.9081712455  TIP3      4540            0.0000000000
     27420      4640  TIP3      H2             12.4075844298        2.8922706220       43.6228364800  TIP3      4540            0.0000000000
     27421      4641  TIP3      OH2            10.2951863214       -3.9183915390       42.8676829173  TIP3      4541            0.0000000000
     27422      4641  TIP3      H1             10.5817043252       -2.9812828399       42.9047738350  TIP3      4541            0.0000000000
     27423      4641  TIP3      H2              9.4194216883       -3.8543400313       43.2680357680  TIP3      4541            0.0000000000
     27424      4642  TIP3      OH2            18.8359205936        4.8619307285       43.1012739983  TIP3      4542            0.0000000000
     27425      4642  TIP3      H1             18.2224324739        4.2645269032       42.6076676858  TIP3      4542            0.0000000000
     27426      4642  TIP3      H2             19.1190352184        5.4404039329       42.3776607766  TIP3      4542            0.0000000000
     27427      4643  TIP3      OH2            23.2337673143        5.1494278907       42.6751411083  TIP3      4543            0.0000000000
     27428      4643  TIP3      H1             23.1341916901        4.3587072046       43.2354793276  TIP3      4543            0.0000000000
     27429      4643  TIP3      H2             24.2037464550        5.2283931216       42.6487465300  TIP3      4543            0.0000000000
     27430      4644  TIP3      OH2            13.2893820945        1.4971334411       42.4814471771  TIP3      4544            0.0000000000
     27431      4644  TIP3      H1             12.9876689546        1.0172764713       43.2708706783  TIP3      4544            0.0000000000
     27432      4644  TIP3      H2             13.8599034979        0.8038559393       42.0748475210  TIP3      4544            0.0000000000
     27433      4645  TIP3      OH2            19.7529934348        1.7589235463       41.4706250327  TIP3      4545            0.0000000000
     27434      4645  TIP3      H1             19.5521902575        1.9822150915       42.4018552773  TIP3      4545            0.0000000000
     27435      4645  TIP3      H2             18.8759039986        1.4460920613       41.2112734163  TIP3      4545            0.0000000000
     27436      4646  TIP3      OH2            14.9745082761       -0.6827917153       44.1495339240  TIP3      4546            0.0000000000
     27437      4646  TIP3      H1             14.8165213188       -1.4921922830       44.6569821696  TIP3      4546            0.0000000000
     27438      4646  TIP3      H2             15.4337130916       -1.1221323821       43.4136499586  TIP3      4546            0.0000000000
     27439      4647  TIP3      OH2            16.1309726636       -2.6056025891       42.7030603599  TIP3      4547            0.0000000000
     27440      4647  TIP3      H1             16.4732673789       -2.8499714887       41.8284734755  TIP3      4547            0.0000000000
     27441      4647  TIP3      H2             16.9626460286       -2.3763362548       43.1591215720  TIP3      4547            0.0000000000
     27442      4648  TIP3      OH2            25.5291439776        0.9595876475       41.8232036050  TIP3      4548            0.0000000000
     27443      4648  TIP3      H1             25.0505116601        1.1104120004       40.9920877871  TIP3      4548            0.0000000000
     27444      4648  TIP3      H2             25.5475106876        1.8507628090       42.2052480338  TIP3      4548            0.0000000000
     27445      4649  TIP3      OH2            15.5969990695        8.4239624254       44.0721077321  TIP3      4549            0.0000000000
     27446      4649  TIP3      H1             16.5582379336        8.2258787337       43.9599655978  TIP3      4549            0.0000000000
     27447      4649  TIP3      H2             15.3196579411        8.3530555310       43.1371763623  TIP3      4549            0.0000000000
     27448      4650  TIP3      OH2             9.0975347921        3.0888550977       43.5919716472  TIP3      4550            0.0000000000
     27449      4650  TIP3      H1             10.0267297637        3.3940110477       43.7274849661  TIP3      4550            0.0000000000
     27450      4650  TIP3      H2              9.1781999320        2.5771498451       42.7731684285  TIP3      4550            0.0000000000
     27451      4651  TIP3      OH2            26.8523892405       -1.7820725034       44.3503678309  TIP3      4551            0.0000000000
     27452      4651  TIP3      H1             25.9894883430       -2.2326020149       44.3056329073  TIP3      4551            0.0000000000
     27453      4651  TIP3      H2             26.5494038235       -0.8528619999       44.4653325880  TIP3      4551            0.0000000000
     27454      4652  TIP3      OH2            24.5508534642       -4.2611308056       42.6656175229  TIP3      4552            0.0000000000
     27455      4652  TIP3      H1             24.8486126856       -3.9738703772       41.7902506385  TIP3      4552            0.0000000000
     27456      4652  TIP3      H2             24.4781447327       -5.2426388716       42.5561278139  TIP3      4552            0.0000000000
     27457      4653  TIP3      OH2            24.0865186088       -6.7842263493       42.1336047859  TIP3      4553            0.0000000000
     27458      4653  TIP3      H1             24.3261925516       -7.3004470659       42.9208637965  TIP3      4553            0.0000000000
     27459      4653  TIP3      H2             23.1700277820       -7.0408847429       41.9918525155  TIP3      4553            0.0000000000
     27460      4654  TIP3      OH2            26.3684972071       -8.6532036902       42.9751251310  TIP3      4554            0.0000000000
     27461      4654  TIP3      H1             26.3401426543       -8.4982783555       41.9964513937  TIP3      4554            0.0000000000
     27462      4654  TIP3      H2             26.8205225622       -7.8441763614       43.2712038049  TIP3      4554            0.0000000000
     27463      4655  TIP3      OH2            10.1442677724       -9.9467608170       44.8485361865  TIP3      4555            0.0000000000
     27464      4655  TIP3      H1             10.3271705643       -9.2097512685       44.2286416900  TIP3      4555            0.0000000000
     27465      4655  TIP3      H2             10.4686884117       -9.5524302968       45.6869037749  TIP3      4555            0.0000000000
     27466      4656  TIP3      OH2            10.9629679191       -7.9000188766       43.1797076357  TIP3      4556            0.0000000000
     27467      4656  TIP3      H1             11.4550190874       -8.0851297586       42.3669440100  TIP3      4556            0.0000000000
     27468      4656  TIP3      H2             11.6909861926       -7.5249387118       43.7224360594  TIP3      4556            0.0000000000
     27469      4657  TIP3      OH2            18.1506359871        7.7800314956       43.8125494688  TIP3      4557            0.0000000000
     27470      4657  TIP3      H1             19.1187827059        7.8904850293       43.8071925992  TIP3      4557            0.0000000000
     27471      4657  TIP3      H2             18.0952204537        6.8158839770       43.8978055588  TIP3      4557            0.0000000000
     27472      4658  TIP3      OH2            11.5549725863        7.0484839808       42.9820406287  TIP3      4558            0.0000000000
     27473      4658  TIP3      H1             11.7488469397        7.6575842736       43.7091310534  TIP3      4558            0.0000000000
     27474      4658  TIP3      H2             11.1607330525        6.3270753682       43.4946601093  TIP3      4558            0.0000000000
     27475      4659  TIP3      OH2            27.2098439570       -6.3533807521       44.3845444807  TIP3      4559            0.0000000000
     27476      4659  TIP3      H1             28.1627771865       -6.1873951919       44.2853348217  TIP3      4559            0.0000000000
     27477      4659  TIP3      H2             26.8432608555       -5.4723599978       44.2729600281  TIP3      4559            0.0000000000
     27478      4660  TIP3      OH2            29.4183179990       -0.8587493854       43.3800338981  TIP3      4560            0.0000000000
     27479      4660  TIP3      H1             29.6246539292       -0.2470701346       44.1063258360  TIP3      4560            0.0000000000
     27480      4660  TIP3      H2             28.5188838302       -1.1224486663       43.6577360975  TIP3      4560            0.0000000000
     27481      4661  TIP3      OH2            28.8618917181       -3.6706283671       43.1777513800  TIP3      4561            0.0000000000
     27482      4661  TIP3      H1             29.2527303190       -2.7751209957       43.1420731370  TIP3      4561            0.0000000000
     27483      4661  TIP3      H2             27.9398122650       -3.4166706837       43.0035531357  TIP3      4561            0.0000000000
     27484      4662  TIP3      OH2            28.0079458744        2.2318723552       43.8497904178  TIP3      4562            0.0000000000
     27485      4662  TIP3      H1             28.9047156532        2.6288102231       43.9063158975  TIP3      4562            0.0000000000
     27486      4662  TIP3      H2             27.9845818801        1.9467666360       42.9155093699  TIP3      4562            0.0000000000
     27487      4663  TIP3      OH2            29.1293749410       -9.6238493031       44.6776972356  TIP3      4563            0.0000000000
     27488      4663  TIP3      H1             29.2005931528       -8.7232438955       44.3219703952  TIP3      4563            0.0000000000
     27489      4663  TIP3      H2             28.1771233891       -9.7863899176       44.7484306373  TIP3      4563            0.0000000000
     27490      4664  TIP3      OH2           -18.8603890181       16.0553800205       43.6759681333  TIP3      4564            0.0000000000
     27491      4664  TIP3      H1            -18.0310675515       16.4906842409       43.3884161158  TIP3      4564            0.0000000000
     27492      4664  TIP3      H2            -18.7710259980       15.1379712909       43.3632559498  TIP3      4564            0.0000000000
     27493      4665  TIP3      OH2           -13.6778753561        8.3924501829       43.6247787828  TIP3      4565            0.0000000000
     27494      4665  TIP3      H1            -14.3767193964        8.5662602316       44.2778623086  TIP3      4565            0.0000000000
     27495      4665  TIP3      H2            -13.1886022501        9.2419316222       43.5862973176  TIP3      4565            0.0000000000
     27496      4666  TIP3      OH2           -11.9778325346       22.9677097133       42.9132149377  TIP3      4566            0.0000000000
     27497      4666  TIP3      H1            -11.8627349349       23.8372492267       43.3633679605  TIP3      4566            0.0000000000
     27498      4666  TIP3      H2            -11.1391630949       22.5437609177       43.2114240777  TIP3      4566            0.0000000000
     27499      4667  TIP3      OH2           -16.6066391358       26.1441338311       44.0836465885  TIP3      4567            0.0000000000
     27500      4667  TIP3      H1            -16.0852272206       25.3838284908       43.7754927329  TIP3      4567            0.0000000000
     27501      4667  TIP3      H2            -16.6214551417       26.0162453129       45.0538827151  TIP3      4567            0.0000000000
     27502      4668  TIP3      OH2           -15.5998385396       17.9801262262       42.7480011443  TIP3      4568            0.0000000000
     27503      4668  TIP3      H1            -15.0110305840       17.8878095857       41.9766221765  TIP3      4568            0.0000000000
     27504      4668  TIP3      H2            -15.4296682469       18.9020791035       43.0241906127  TIP3      4568            0.0000000000
     27505      4669  TIP3      OH2           -19.6154577944       12.8447879715       43.6899456229  TIP3      4569            0.0000000000
     27506      4669  TIP3      H1            -19.7543735918       12.4660883095       44.5799466980  TIP3      4569            0.0000000000
     27507      4669  TIP3      H2            -20.0467245571       12.2072814176       43.1043906725  TIP3      4569            0.0000000000
     27508      4670  TIP3      OH2           -23.1980357396       12.2095211739       42.0374509872  TIP3      4570            0.0000000000
     27509      4670  TIP3      H1            -23.5845396668       11.8104672387       42.8507600969  TIP3      4570            0.0000000000
     27510      4670  TIP3      H2            -23.6376990481       13.0774913746       41.9915717564  TIP3      4570            0.0000000000
     27511      4671  TIP3      OH2           -28.1948484902       12.2055847898       44.4131275813  TIP3      4571            0.0000000000
     27512      4671  TIP3      H1            -27.4060629489       12.7401458078       44.2189382057  TIP3      4571            0.0000000000
     27513      4671  TIP3      H2            -28.5046176788       12.6648345281       45.2016906800  TIP3      4571            0.0000000000
     27514      4672  TIP3      OH2           -24.0222762645       14.8309996359       43.8874301886  TIP3      4572            0.0000000000
     27515      4672  TIP3      H1            -24.9563800540       14.7497919572       43.6171428331  TIP3      4572            0.0000000000
     27516      4672  TIP3      H2            -23.5952239581       15.0182578076       43.0356771230  TIP3      4572            0.0000000000
     27517      4673  TIP3      OH2           -16.8527886452       12.7016924277       43.4648066673  TIP3      4573            0.0000000000
     27518      4673  TIP3      H1            -17.8134518560       12.8825482531       43.5593171090  TIP3      4573            0.0000000000
     27519      4673  TIP3      H2            -16.4736873753       13.4866323667       43.9261005069  TIP3      4573            0.0000000000
     27520      4674  TIP3      OH2           -18.7293909219       21.0639275228       44.2542681430  TIP3      4574            0.0000000000
     27521      4674  TIP3      H1            -18.7481797958       22.0363547280       44.2891676789  TIP3      4574            0.0000000000
     27522      4674  TIP3      H2            -19.6287732305       20.8465049906       44.5425636265  TIP3      4574            0.0000000000
     27523      4675  TIP3      OH2           -26.7833566159       17.5836606784       43.4688280442  TIP3      4575            0.0000000000
     27524      4675  TIP3      H1            -26.5449035563       17.7893758328       44.3798641383  TIP3      4575            0.0000000000
     27525      4675  TIP3      H2            -27.7481314562       17.7374883425       43.4876033704  TIP3      4575            0.0000000000
     27526      4676  TIP3      OH2           -15.5898735268       20.4569723377       43.8881075453  TIP3      4576            0.0000000000
     27527      4676  TIP3      H1            -15.9229448133       20.6177624755       44.7853287864  TIP3      4576            0.0000000000
     27528      4676  TIP3      H2            -16.2979145371       20.8285277044       43.3441526090  TIP3      4576            0.0000000000
     27529      4677  TIP3      OH2           -11.4901344413       25.3660459389       44.1182830860  TIP3      4577            0.0000000000
     27530      4677  TIP3      H1            -11.0705434556       25.7142481213       43.3050503258  TIP3      4577            0.0000000000
     27531      4677  TIP3      H2            -12.2007503055       26.0307422682       44.2738916494  TIP3      4577            0.0000000000
     27532      4678  TIP3      OH2           -20.6556032363       22.0523689410       42.3956701172  TIP3      4578            0.0000000000
     27533      4678  TIP3      H1            -21.1653889906       22.1792681970       41.5721168395  TIP3      4578            0.0000000000
     27534      4678  TIP3      H2            -21.3949714692       22.0445492806       43.0339925603  TIP3      4578            0.0000000000
     27535      4679  TIP3      OH2           -22.6860490754       21.8151591696       44.6420807953  TIP3      4579            0.0000000000
     27536      4679  TIP3      H1            -23.3433268932       21.4724445177       45.2698158593  TIP3      4579            0.0000000000
     27537      4679  TIP3      H2            -23.0561995121       22.7043795147       44.4208728995  TIP3      4579            0.0000000000
     27538      4680  TIP3      OH2           -24.2910158230       11.1917991576       44.3179832234  TIP3      4580            0.0000000000
     27539      4680  TIP3      H1            -24.8296742921       11.6306929715       45.0153684328  TIP3      4580            0.0000000000
     27540      4680  TIP3      H2            -23.3937917616       11.2658366548       44.6930422313  TIP3      4580            0.0000000000
     27541      4681  TIP3      OH2           -25.8508564444       22.3023264658       43.7944947901  TIP3      4581            0.0000000000
     27542      4681  TIP3      H1            -25.8282954026       22.5988576318       44.7202542687  TIP3      4581            0.0000000000
     27543      4681  TIP3      H2            -25.3605911682       21.4587608673       43.8288110658  TIP3      4581            0.0000000000
     27544      4682  TIP3      OH2           -27.2368753956       14.5238720750       42.9902664600  TIP3      4582            0.0000000000
     27545      4682  TIP3      H1            -27.1991330753       15.4679177000       43.2084591446  TIP3      4582            0.0000000000
     27546      4682  TIP3      H2            -28.1632460340       14.3215258438       43.2219718701  TIP3      4582            0.0000000000
     27547      4683  TIP3      OH2           -18.9152022980       23.9631256956       43.1206744872  TIP3      4583            0.0000000000
     27548      4683  TIP3      H1            -19.5047240278       23.2950434904       42.7075332864  TIP3      4583            0.0000000000
     27549      4683  TIP3      H2            -18.4302437101       24.2885204566       42.3464523769  TIP3      4583            0.0000000000
     27550      4684  TIP3      OH2           -14.6184187884       23.9154149612       42.6331385831  TIP3      4584            0.0000000000
     27551      4684  TIP3      H1            -14.6852765051       23.4408635081       43.4862483725  TIP3      4584            0.0000000000
     27552      4684  TIP3      H2            -13.6491788877       23.8616391828       42.4850062413  TIP3      4584            0.0000000000
     27553      4685  TIP3      OH2           -23.8948520688       20.2803992225       42.5300500285  TIP3      4585            0.0000000000
     27554      4685  TIP3      H1            -23.2240330588       19.9508399162       43.1643186504  TIP3      4585            0.0000000000
     27555      4685  TIP3      H2            -23.9771962518       19.4914775116       41.9502543107  TIP3      4585            0.0000000000
     27556      4686  TIP3      OH2           -17.9078520125       20.8644452791       41.4321374114  TIP3      4586            0.0000000000
     27557      4686  TIP3      H1            -18.2283525431       21.1513004124       42.3048648340  TIP3      4586            0.0000000000
     27558      4686  TIP3      H2            -18.4983785963       20.1201172340       41.2581903405  TIP3      4586            0.0000000000
     27559      4687  TIP3      OH2           -22.6147852427       18.2994181828       44.1318538008  TIP3      4587            0.0000000000
     27560      4687  TIP3      H1            -23.1024601947       17.7069979528       44.7094001395  TIP3      4587            0.0000000000
     27561      4687  TIP3      H2            -22.1270782130       17.6255165695       43.6125656767  TIP3      4587            0.0000000000
     27562      4688  TIP3      OH2           -21.4887480925       16.2444708417       42.6905120690  TIP3      4588            0.0000000000
     27563      4688  TIP3      H1            -21.4027264935       16.1849821299       41.7256192409  TIP3      4588            0.0000000000
     27564      4688  TIP3      H2            -20.5404723786       16.2599270678       42.9564079283  TIP3      4588            0.0000000000
     27565      4689  TIP3      OH2           -12.0197861417       19.6870248253       41.9804373180  TIP3      4589            0.0000000000
     27566      4689  TIP3      H1            -12.4886859134       19.8644362930       41.1553586991  TIP3      4589            0.0000000000
     27567      4689  TIP3      H2            -11.9354389507       20.5846223529       42.3540596727  TIP3      4589            0.0000000000
     27568      4690  TIP3      OH2           -22.0456557594       26.7317527983       43.8924896075  TIP3      4590            0.0000000000
     27569      4690  TIP3      H1            -21.0695644837       26.8259770243       43.7984149649  TIP3      4590            0.0000000000
     27570      4690  TIP3      H2            -22.2804080582       26.7422518606       42.9382847290  TIP3      4590            0.0000000000
     27571      4691  TIP3      OH2           -28.3818364980       21.3639005575       43.4910411328  TIP3      4591            0.0000000000
     27572      4691  TIP3      H1            -27.4413060499       21.6499757903       43.4431582757  TIP3      4591            0.0000000000
     27573      4691  TIP3      H2            -28.6162900174       21.4223023681       42.5480694431  TIP3      4591            0.0000000000
     27574      4692  TIP3      OH2           -10.4822307304       17.1468973771       44.1852539276  TIP3      4592            0.0000000000
     27575      4692  TIP3      H1            -11.2255675178       16.6594627451       43.7905531636  TIP3      4592            0.0000000000
     27576      4692  TIP3      H2            -10.9687042905       17.9420427325       44.5139316082  TIP3      4592            0.0000000000
     27577      4693  TIP3      OH2           -12.6922463027       14.6664906189       42.9869885557  TIP3      4593            0.0000000000
     27578      4693  TIP3      H1            -12.7092750086       14.9671636341       42.0589223208  TIP3      4593            0.0000000000
     27579      4693  TIP3      H2            -13.0167613853       13.7443319104       42.8824245649  TIP3      4593            0.0000000000
     27580      4694  TIP3      OH2           -13.8524566370       12.2601554782       42.2791200307  TIP3      4594            0.0000000000
     27581      4694  TIP3      H1            -13.3995255590       11.8309497900       43.0392220161  TIP3      4594            0.0000000000
     27582      4694  TIP3      H2            -14.7851560136       12.2181405665       42.5746640472  TIP3      4594            0.0000000000
     27583      4695  TIP3      OH2           -11.7603122134       10.6600051097       43.2580826590  TIP3      4595            0.0000000000
     27584      4695  TIP3      H1            -11.7695160344       10.7331701449       42.2713744701  TIP3      4595            0.0000000000
     27585      4695  TIP3      H2            -10.9846440590       11.2321737688       43.4659919938  TIP3      4595            0.0000000000
     27586      4696  TIP3      OH2           -27.2679970050        8.9452850470       45.1969857409  TIP3      4596            0.0000000000
     27587      4696  TIP3      H1            -27.1632559565        9.5001648294       44.3986871737  TIP3      4596            0.0000000000
     27588      4696  TIP3      H2            -28.2417914554        8.9384012592       45.2930945363  TIP3      4596            0.0000000000
     27589      4697  TIP3      OH2           -26.3096845736       10.1035675407       42.8718413086  TIP3      4597            0.0000000000
     27590      4697  TIP3      H1            -25.3924787760        9.8117171271       43.0198445837  TIP3      4597            0.0000000000
     27591      4697  TIP3      H2            -26.2669365325       10.9911024050       43.2633342093  TIP3      4597            0.0000000000
     27592      4698  TIP3      OH2           -19.4142924588       26.6572608064       43.3824522560  TIP3      4598            0.0000000000
     27593      4698  TIP3      H1            -18.4865838664       26.7705653044       43.6516841574  TIP3      4598            0.0000000000
     27594      4698  TIP3      H2            -19.4409733051       25.6986874698       43.2449233966  TIP3      4598            0.0000000000
     27595      4699  TIP3      OH2           -26.0408688289       26.5444811694       43.0316075316  TIP3      4599            0.0000000000
     27596      4699  TIP3      H1            -26.1857969796       27.3507600172       43.5582324831  TIP3      4599            0.0000000000
     27597      4699  TIP3      H2            -26.1101947529       25.8695934903       43.7258519153  TIP3      4599            0.0000000000
     27598      4700  TIP3      OH2             0.1682497273       15.8831767440       43.7445985665  TIP3      4600            0.0000000000
     27599      4700  TIP3      H1              1.0936012513       16.1835805853       43.7851965203  TIP3      4600            0.0000000000
     27600      4700  TIP3      H2              0.2710382453       15.1042995379       43.1819649024  TIP3      4600            0.0000000000
     27601      4701  TIP3      OH2             5.1925220159        8.5405773141       43.6548993374  TIP3      4601            0.0000000000
     27602      4701  TIP3      H1              4.5865738147        8.5020410586       44.4044051226  TIP3      4601            0.0000000000
     27603      4701  TIP3      H2              5.8091577343        9.2641055481       43.8625019031  TIP3      4601            0.0000000000
     27604      4702  TIP3      OH2             6.7922155590       23.0114506522       43.1621610526  TIP3      4602            0.0000000000
     27605      4702  TIP3      H1              6.9632987138       23.8815542245       43.5923911400  TIP3      4602            0.0000000000
     27606      4702  TIP3      H2              7.7069800845       22.6376958011       43.2248828042  TIP3      4602            0.0000000000
     27607      4703  TIP3      OH2             2.3003065295       25.9717197790       44.1752508129  TIP3      4603            0.0000000000
     27608      4703  TIP3      H1              2.9760322551       25.3199654022       43.9237615193  TIP3      4603            0.0000000000
     27609      4703  TIP3      H2              2.3512703877       25.9264539405       45.1566557982  TIP3      4603            0.0000000000
     27610      4704  TIP3      OH2             3.5365621616       17.9795719337       42.8834715875  TIP3      4604            0.0000000000
     27611      4704  TIP3      H1              3.9595326147       17.6970952181       42.0561380446  TIP3      4604            0.0000000000
     27612      4704  TIP3      H2              3.5140963529       18.9419259384       42.7616465616  TIP3      4604            0.0000000000
     27613      4705  TIP3      OH2            -0.7539116833       12.6448880149       43.6341667636  TIP3      4605            0.0000000000
     27614      4705  TIP3      H1             -0.8866455190       12.5928196948       44.5961775710  TIP3      4605            0.0000000000
     27615      4705  TIP3      H2             -1.2099595155       11.8556833184       43.3230985345  TIP3      4605            0.0000000000
     27616      4706  TIP3      OH2            -4.5002621829       12.3227371569       42.2928087999  TIP3      4606            0.0000000000
     27617      4706  TIP3      H1             -5.0025213254       12.1313240362       43.1008367703  TIP3      4606            0.0000000000
     27618      4706  TIP3      H2             -4.6165601542       13.2845657028       42.2525602824  TIP3      4606            0.0000000000
     27619      4707  TIP3      OH2           -10.0962903468       12.6350687414       44.4281730555  TIP3      4607            0.0000000000
     27620      4707  TIP3      H1             -9.1910672683       12.8114482419       44.0921729429  TIP3      4607            0.0000000000
     27621      4707  TIP3      H2            -10.5660061957       13.3950553307       44.0598990772  TIP3      4607            0.0000000000
     27622      4708  TIP3      OH2            -5.0412543700       14.8234650996       43.7265853497  TIP3      4608            0.0000000000
     27623      4708  TIP3      H1             -5.8425075150       15.0689512886       43.2246361802  TIP3      4608            0.0000000000
     27624      4708  TIP3      H2             -4.3470188711       15.1356964489       43.1185181178  TIP3      4608            0.0000000000
     27625      4709  TIP3      OH2             1.8981046981       12.6397180386       43.4066641526  TIP3      4609            0.0000000000
     27626      4709  TIP3      H1              0.9306976403       12.5074228041       43.5267003875  TIP3      4609            0.0000000000
     27627      4709  TIP3      H2              2.0918906166       13.4097057620       43.9877537642  TIP3      4609            0.0000000000
     27628      4710  TIP3      OH2             0.2016283176       20.8702686354       44.1625500025  TIP3      4610            0.0000000000
     27629      4710  TIP3      H1              0.2652514079       21.8208280132       44.3351372448  TIP3      4610            0.0000000000
     27630      4710  TIP3      H2             -0.7190056886       20.6865600227       44.3965046683  TIP3      4610            0.0000000000
     27631      4711  TIP3      OH2            -8.0258798625       17.7753647700       43.2049507239  TIP3      4611            0.0000000000
     27632      4711  TIP3      H1             -7.6370944207       17.8725009204       44.0966713392  TIP3      4611            0.0000000000
     27633      4711  TIP3      H2             -8.9626708295       17.6467335946       43.4701146670  TIP3      4611            0.0000000000
     27634      4712  TIP3      OH2             3.5378648717       20.7311110000       43.6260759644  TIP3      4612            0.0000000000
     27635      4712  TIP3      H1              3.6120833026       20.9624179219       44.5634848148  TIP3      4612            0.0000000000
     27636      4712  TIP3      H2              2.6008841222       20.8856900590       43.4641244387  TIP3      4612            0.0000000000
     27637      4713  TIP3      OH2             7.2177549401       25.4741602998       43.9202353916  TIP3      4613            0.0000000000
     27638      4713  TIP3      H1              7.8444080648       25.7481981801       43.2168087983  TIP3      4613            0.0000000000
     27639      4713  TIP3      H2              6.5083227347       26.1312935150       43.7762383107  TIP3      4613            0.0000000000
     27640      4714  TIP3      OH2            -1.8299294779       21.9538079480       42.3243718590  TIP3      4614            0.0000000000
     27641      4714  TIP3      H1             -2.4409203252       22.0123413918       41.5605421095  TIP3      4614            0.0000000000
     27642      4714  TIP3      H2             -2.4978953105       21.8401921420       43.0232413530  TIP3      4614            0.0000000000
     27643      4715  TIP3      OH2            -3.8379547760       21.8213742282       44.6450300304  TIP3      4615            0.0000000000
     27644      4715  TIP3      H1             -4.5956641962       21.3547444802       45.0463487003  TIP3      4615            0.0000000000
     27645      4715  TIP3      H2             -4.1319193520       22.7597401092       44.7490970068  TIP3      4615            0.0000000000
     27646      4716  TIP3      OH2            -5.8425897176       11.4872575837      -44.9577303991  TIP3      4616            0.0000000000
     27647      4716  TIP3      H1             -5.6717017384       12.3475964970      -44.5319707764  TIP3      4616            0.0000000000
     27648      4716  TIP3      H2             -4.9169466448       11.2092390088      -45.0429424065  TIP3      4616            0.0000000000
     27649      4717  TIP3      OH2            -7.1621420794       22.1533525651       43.9389046738  TIP3      4617            0.0000000000
     27650      4717  TIP3      H1             -6.8203777193       22.3019244930       44.8346315338  TIP3      4617            0.0000000000
     27651      4717  TIP3      H2             -6.5544870025       21.4636874837       43.6095427722  TIP3      4617            0.0000000000
     27652      4718  TIP3      OH2            -8.4683371722       14.9096238629       42.9037816703  TIP3      4618            0.0000000000
     27653      4718  TIP3      H1             -8.5368633705       15.8573883215       43.1086247192  TIP3      4618            0.0000000000
     27654      4718  TIP3      H2             -8.4944856348       14.8866633870       41.9266026525  TIP3      4618            0.0000000000
     27655      4719  TIP3      OH2            -0.3022506742       24.0699522546       42.9899142898  TIP3      4619            0.0000000000
     27656      4719  TIP3      H1             -0.8354988847       23.3514322614       42.5883828274  TIP3      4619            0.0000000000
     27657      4719  TIP3      H2              0.4424456821       24.1145678321       42.3810339714  TIP3      4619            0.0000000000
     27658      4720  TIP3      OH2             4.2502172559       23.9606930678       42.5677608322  TIP3      4620            0.0000000000
     27659      4720  TIP3      H1              4.3477815582       23.2348819170       43.2139995689  TIP3      4620            0.0000000000
     27660      4720  TIP3      H2              5.1696937111       24.0278719343       42.2467513600  TIP3      4620            0.0000000000
     27661      4721  TIP3      OH2            -5.6731627788       20.3379095912       42.5311544629  TIP3      4621            0.0000000000
     27662      4721  TIP3      H1             -5.8443348306       19.8395895287       43.3509519484  TIP3      4621            0.0000000000
     27663      4721  TIP3      H2             -4.9490151659       19.7645109756       42.1912612984  TIP3      4621            0.0000000000
     27664      4722  TIP3      OH2             0.8164538179       20.8134850023       41.4401752090  TIP3      4622            0.0000000000
     27665      4722  TIP3      H1              0.7679458091       20.9082814225       42.4134555187  TIP3      4622            0.0000000000
     27666      4722  TIP3      H2             -0.0803216650       20.4767218526       41.2926278225  TIP3      4622            0.0000000000
     27667      4723  TIP3      OH2            -3.9980623683       18.4797481428       44.1526357878  TIP3      4623            0.0000000000
     27668      4723  TIP3      H1             -4.2203404992       17.8705204435       44.8616059121  TIP3      4623            0.0000000000
     27669      4723  TIP3      H2             -3.6324470377       17.8670557179       43.4902069912  TIP3      4623            0.0000000000
     27670      4724  TIP3      OH2            -2.6680392189       16.1152240395       42.7294163812  TIP3      4624            0.0000000000
     27671      4724  TIP3      H1             -2.5875702699       15.9697432561       41.7746318499  TIP3      4624            0.0000000000
     27672      4724  TIP3      H2             -1.7308534642       16.2021344613       42.9845957864  TIP3      4624            0.0000000000
     27673      4725  TIP3      OH2             6.6822290632       19.6948083424       42.0668030071  TIP3      4625            0.0000000000
     27674      4725  TIP3      H1              6.2694999743       19.8546323003       41.2089514004  TIP3      4625            0.0000000000
     27675      4725  TIP3      H2              6.7450033063       20.6052793025       42.4205928204  TIP3      4625            0.0000000000
     27676      4726  TIP3      OH2            -3.4213011327       26.9042728063       44.1093813692  TIP3      4626            0.0000000000
     27677      4726  TIP3      H1             -2.4417352323       26.9771507817       44.1894607376  TIP3      4626            0.0000000000
     27678      4726  TIP3      H2             -3.4814509302       27.0274965434       43.1403985767  TIP3      4626            0.0000000000
     27679      4727  TIP3      OH2            -9.6904907829       21.6348888989       43.4357740984  TIP3      4627            0.0000000000
     27680      4727  TIP3      H1             -8.7179550163       21.8001273497       43.5165950556  TIP3      4627            0.0000000000
     27681      4727  TIP3      H2             -9.7508024586       21.2555307027       42.5437041635  TIP3      4627            0.0000000000
     27682      4728  TIP3      OH2             8.2849170042       17.3185637733       44.3173894820  TIP3      4628            0.0000000000
     27683      4728  TIP3      H1              7.5606857073       16.9130462342       43.8102844251  TIP3      4628            0.0000000000
     27684      4728  TIP3      H2              7.7892013958       17.9807913529       44.8517124569  TIP3      4628            0.0000000000
     27685      4729  TIP3      OH2             6.4126963694       14.6391198664       43.1689373927  TIP3      4629            0.0000000000
     27686      4729  TIP3      H1              6.2737424140       14.9039490941       42.2432080197  TIP3      4629            0.0000000000
     27687      4729  TIP3      H2              6.1857199133       13.6852379133       43.1099796275  TIP3      4629            0.0000000000
     27688      4730  TIP3      OH2             5.0187115440       12.2439443636       42.3131158415  TIP3      4630            0.0000000000
     27689      4730  TIP3      H1              5.4936505686       11.7430878485       43.0053652299  TIP3      4630            0.0000000000
     27690      4730  TIP3      H2              4.1045397669       12.2658875841       42.6613882055  TIP3      4630            0.0000000000
     27691      4731  TIP3      OH2             7.1880612378       10.6523361513       43.2618966130  TIP3      4631            0.0000000000
     27692      4731  TIP3      H1              7.1415856940       10.7027270851       42.2786105745  TIP3      4631            0.0000000000
     27693      4731  TIP3      H2              8.0006399813       11.1832494975       43.4003477704  TIP3      4631            0.0000000000
     27694      4732  TIP3      OH2            -8.8449703169        9.0455534452       44.8524667866  TIP3      4632            0.0000000000
     27695      4732  TIP3      H1             -8.5079068834        9.7863692435       44.3108638439  TIP3      4632            0.0000000000
     27696      4732  TIP3      H2             -8.6789436544        9.3593424287       45.7558376047  TIP3      4632            0.0000000000
     27697      4733  TIP3      OH2            -7.9199645213       11.1610685788       43.3611858648  TIP3      4633            0.0000000000
     27698      4733  TIP3      H1             -7.4345208675       10.7171732513       42.6596816147  TIP3      4633            0.0000000000
     27699      4733  TIP3      H2             -7.1979260228       11.4361435658       43.9803690456  TIP3      4633            0.0000000000
     27700      4734  TIP3      OH2            -0.7400051395       26.7656040300       43.6004026871  TIP3      4634            0.0000000000
     27701      4734  TIP3      H1              0.2051928189       26.9774144128       43.6468627675  TIP3      4634            0.0000000000
     27702      4734  TIP3      H2             -0.6869229239       25.8392389587       43.2910742394  TIP3      4634            0.0000000000
     27703      4735  TIP3      OH2            -7.1979651598       26.3506851709       42.5212064575  TIP3      4635            0.0000000000
     27704      4735  TIP3      H1             -7.9814909595       26.7605768395       42.9389993100  TIP3      4635            0.0000000000
     27705      4735  TIP3      H2             -6.4717443386       26.8701762239       42.8863597152  TIP3      4635            0.0000000000
     27706      4736  TIP3      OH2            18.7495641788       16.0543511879       43.7239172028  TIP3      4636            0.0000000000
     27707      4736  TIP3      H1             19.6401250414       16.2660324286       44.0657147766  TIP3      4636            0.0000000000
     27708      4736  TIP3      H2             18.9694529669       15.7150317366       42.8508715192  TIP3      4636            0.0000000000
     27709      4737  TIP3      OH2            24.0965721691        8.4601793307       44.0330723400  TIP3      4637            0.0000000000
     27710      4737  TIP3      H1             23.2514104624        8.4898253036       44.4989488961  TIP3      4637            0.0000000000
     27711      4737  TIP3      H2             24.5741094116        9.1980921568       44.4430614136  TIP3      4637            0.0000000000
     27712      4738  TIP3      OH2            25.8405472808       22.9595340314       42.7005985528  TIP3      4638            0.0000000000
     27713      4738  TIP3      H1             26.0336894929       23.8394912467       43.0863718266  TIP3      4638            0.0000000000
     27714      4738  TIP3      H2             26.5119398930       22.4042500093       43.1517480101  TIP3      4638            0.0000000000
     27715      4739  TIP3      OH2            21.1184000263       26.1728331024       44.0630909985  TIP3      4639            0.0000000000
     27716      4739  TIP3      H1             21.2833421572       25.2496334644       43.8236251589  TIP3      4639            0.0000000000
     27717      4739  TIP3      H2             21.0408085179       26.1143548955       45.0461684537  TIP3      4639            0.0000000000
     27718      4740  TIP3      OH2            22.1905541345       18.0887041799       42.9219437335  TIP3      4640            0.0000000000
     27719      4740  TIP3      H1             22.5891809712       17.9781309835       42.0347500903  TIP3      4640            0.0000000000
     27720      4740  TIP3      H2             22.0937156437       19.0551365259       42.9623658133  TIP3      4640            0.0000000000
     27721      4741  TIP3      OH2            18.0777330330       12.6543172338       43.4860512512  TIP3      4641            0.0000000000
     27722      4741  TIP3      H1             17.9165229419       12.4526440679       44.4256364997  TIP3      4641            0.0000000000
     27723      4741  TIP3      H2             17.5032394570       12.0336484449       43.0206249208  TIP3      4641            0.0000000000
     27724      4742  TIP3      OH2            14.4954089561       12.2112995561       42.2154908184  TIP3      4642            0.0000000000
     27725      4742  TIP3      H1             14.1257555629       11.8886519495       43.0621714462  TIP3      4642            0.0000000000
     27726      4742  TIP3      H2             14.1905337265       13.1289695358       42.2059986434  TIP3      4642            0.0000000000
     27727      4743  TIP3      OH2             8.8813262629       12.5422018593       44.3405243399  TIP3      4643            0.0000000000
     27728      4743  TIP3      H1              9.8119557925       12.7774580866       44.1481072284  TIP3      4643            0.0000000000
     27729      4743  TIP3      H2              8.4753171688       13.4094649157       44.1913914080  TIP3      4643            0.0000000000
     27730      4744  TIP3      OH2            13.7485094405       15.2045435627       43.7706727651  TIP3      4644            0.0000000000
     27731      4744  TIP3      H1             12.8939077156       15.1630723150       43.3146353818  TIP3      4644            0.0000000000
     27732      4744  TIP3      H2             14.3414867157       15.2994823262       43.0046614364  TIP3      4644            0.0000000000
     27733      4745  TIP3      OH2            20.7085938312       13.2162025045       43.3065930856  TIP3      4645            0.0000000000
     27734      4745  TIP3      H1             19.7795982494       12.9652875226       43.5123400040  TIP3      4645            0.0000000000
     27735      4745  TIP3      H2             20.8080029746       14.0284418836       43.8294614887  TIP3      4645            0.0000000000
     27736      4746  TIP3      OH2            18.9628999601       20.8727484783       44.1022779480  TIP3      4646            0.0000000000
     27737      4746  TIP3      H1             19.2497166471       21.6892794273       44.5334042708  TIP3      4646            0.0000000000
     27738      4746  TIP3      H2             18.1548974931       20.6744652737       44.5961884932  TIP3      4646            0.0000000000
     27739      4747  TIP3      OH2            10.7527077404       17.8780059103       43.1469952279  TIP3      4647            0.0000000000
     27740      4747  TIP3      H1             11.1057158748       17.9177464414       44.0536336028  TIP3      4647            0.0000000000
     27741      4747  TIP3      H2              9.8228977060       17.6386878783       43.3487017224  TIP3      4647            0.0000000000
     27742      4748  TIP3      OH2            22.3351575621       20.7395772489       43.9448289070  TIP3      4648            0.0000000000
     27743      4748  TIP3      H1             22.4782810583       20.6595124036       44.9057504572  TIP3      4648            0.0000000000
     27744      4748  TIP3      H2             21.4231098331       21.0429253983       43.9182739421  TIP3      4648            0.0000000000
     27745      4749  TIP3      OH2            26.2175918718       25.3560138685       44.0796483138  TIP3      4649            0.0000000000
     27746      4749  TIP3      H1             26.8708833941       25.7128755967       43.4527005488  TIP3      4649            0.0000000000
     27747      4749  TIP3      H2             25.5368687009       26.0640226022       44.0403852369  TIP3      4649            0.0000000000
     27748      4750  TIP3      OH2            16.9331055243       22.1533003929       42.2654153971  TIP3      4650            0.0000000000
     27749      4750  TIP3      H1             16.3320717177       22.0523319705       41.5038876069  TIP3      4650            0.0000000000
     27750      4750  TIP3      H2             16.2754625286       22.0665319586       42.9809426707  TIP3      4650            0.0000000000
     27751      4751  TIP3      OH2            14.9852253596       21.8819209430       44.5913527656  TIP3      4651            0.0000000000
     27752      4751  TIP3      H1             14.2463064834       21.3156662888       44.8820764012  TIP3      4651            0.0000000000
     27753      4751  TIP3      H2             14.6248748693       22.7855574153       44.7695028984  TIP3      4651            0.0000000000
     27754      4752  TIP3      OH2            13.0429410229       11.5153279532       44.5388331479  TIP3      4652            0.0000000000
     27755      4752  TIP3      H1             12.9375408510       12.3319267231       45.0497320619  TIP3      4652            0.0000000000
     27756      4752  TIP3      H2             13.9302883375       11.2667307936       44.8489701825  TIP3      4652            0.0000000000
     27757      4753  TIP3      OH2            11.8072780922       22.1642988134       43.9436244137  TIP3      4653            0.0000000000
     27758      4753  TIP3      H1             12.3918601416       22.5106776827       44.6291990386  TIP3      4653            0.0000000000
     27759      4753  TIP3      H2             12.3376601031       21.3979665771       43.6393986186  TIP3      4653            0.0000000000
     27760      4754  TIP3      OH2            10.3512828887       14.7797924007       43.0118435026  TIP3      4654            0.0000000000
     27761      4754  TIP3      H1             10.3266222035       15.7060017022       43.2861123918  TIP3      4654            0.0000000000
     27762      4754  TIP3      H2              9.8563202521       14.7956484843       42.1877199080  TIP3      4654            0.0000000000
     27763      4755  TIP3      OH2            18.6590292475       24.0933389845       42.9522913788  TIP3      4655            0.0000000000
     27764      4755  TIP3      H1             18.0290762414       23.3998788715       42.6501147538  TIP3      4655            0.0000000000
     27765      4755  TIP3      H2             19.1846129099       24.2147099557       42.1495776607  TIP3      4655            0.0000000000
     27766      4756  TIP3      OH2            23.2030707812       23.9960044019       42.6530568483  TIP3      4656            0.0000000000
     27767      4756  TIP3      H1             23.6200157566       23.1562035223       42.9391266263  TIP3      4656            0.0000000000
     27768      4756  TIP3      H2             23.9558468219       24.3598215295       42.1535460169  TIP3      4656            0.0000000000
     27769      4757  TIP3      OH2            13.1723811489       20.3195221930       42.6452344579  TIP3      4657            0.0000000000
     27770      4757  TIP3      H1             12.6904538815       19.7236016337       43.2477303506  TIP3      4657            0.0000000000
     27771      4757  TIP3      H2             13.9541872674       19.7433973864       42.5050839501  TIP3      4657            0.0000000000
     27772      4758  TIP3      OH2            19.5362594763       20.8336299955       41.4121900654  TIP3      4658            0.0000000000
     27773      4758  TIP3      H1             19.3740188763       21.1408142367       42.3275522835  TIP3      4658            0.0000000000
     27774      4758  TIP3      H2             18.7449327605       20.2793537798       41.3216485622  TIP3      4658            0.0000000000
     27775      4759  TIP3      OH2            14.8991010499       18.3425849635       44.1759692849  TIP3      4659            0.0000000000
     27776      4759  TIP3      H1             14.5790519049       17.6513654265       44.7602266335  TIP3      4659            0.0000000000
     27777      4759  TIP3      H2             15.2727732219       17.7670040344       43.4759900698  TIP3      4659            0.0000000000
     27778      4760  TIP3      OH2            16.1440565209       16.2825041831       42.6361706037  TIP3      4660            0.0000000000
     27779      4760  TIP3      H1             16.3856610432       15.9640519969       41.7508183525  TIP3      4660            0.0000000000
     27780      4760  TIP3      H2             17.0289905687       16.3391966655       43.0503865568  TIP3      4660            0.0000000000
     27781      4761  TIP3      OH2            25.3423174373       19.6327784403       42.2694209402  TIP3      4661            0.0000000000
     27782      4761  TIP3      H1             24.7296647680       19.7049984746       41.5194203919  TIP3      4661            0.0000000000
     27783      4761  TIP3      H2             25.1910750796       20.4802035660       42.7363580179  TIP3      4661            0.0000000000
     27784      4762  TIP3      OH2            15.6931825647       26.7831851427       44.0086364119  TIP3      4662            0.0000000000
     27785      4762  TIP3      H1             16.6681182761       26.9288102418       43.9493435758  TIP3      4662            0.0000000000
     27786      4762  TIP3      H2             15.5132994919       26.8519285882       43.0458687494  TIP3      4662            0.0000000000
     27787      4763  TIP3      OH2             9.1836381118       21.8364533743       43.4167902307  TIP3      4663            0.0000000000
     27788      4763  TIP3      H1             10.1519025865       21.9503090684       43.5625331021  TIP3      4663            0.0000000000
     27789      4763  TIP3      H2              9.1357442947       21.3009153915       42.6114425396  TIP3      4663            0.0000000000
     27790      4764  TIP3      OH2            26.8511951533       16.8278794490       44.4844942398  TIP3      4664            0.0000000000
     27791      4764  TIP3      H1             26.1337076540       16.3532689807       44.0286515745  TIP3      4664            0.0000000000
     27792      4764  TIP3      H2             26.3458018580       17.5839059716       44.8622270791  TIP3      4664            0.0000000000
     27793      4765  TIP3      OH2            24.6342719648       14.7190513908       43.0031481338  TIP3      4665            0.0000000000
     27794      4765  TIP3      H1             24.9513479425       14.8415565843       42.0943245352  TIP3      4665            0.0000000000
     27795      4765  TIP3      H2             24.4418768228       13.7599397940       42.9868265006  TIP3      4665            0.0000000000
     27796      4766  TIP3      OH2            24.0544488681       12.0716279697       42.2719797022  TIP3      4666            0.0000000000
     27797      4766  TIP3      H1             24.6013712995       11.3016923781       42.5351372438  TIP3      4666            0.0000000000
     27798      4766  TIP3      H2             23.1735593671       11.8414154757       42.5963325427  TIP3      4666            0.0000000000
     27799      4767  TIP3      OH2            26.4000832146       10.4979960935       43.0058646812  TIP3      4667            0.0000000000
     27800      4767  TIP3      H1             26.4519997954       10.6535362830       42.0242186263  TIP3      4667            0.0000000000
     27801      4767  TIP3      H2             26.9347334787       11.2373596676       43.3456104277  TIP3      4667            0.0000000000
     27802      4768  TIP3      OH2            10.2327671329        9.0521501004      -44.7713865805  TIP3      4668            0.0000000000
     27803      4768  TIP3      H1             10.5029629346        9.4886064763      -45.6078864832  TIP3      4668            0.0000000000
     27804      4768  TIP3      H2             10.1328099457        9.8332315417      -44.2240462797  TIP3      4668            0.0000000000
     27805      4769  TIP3      OH2            10.9017696892       10.7404164007       43.1474525319  TIP3      4669            0.0000000000
     27806      4769  TIP3      H1             11.3920010772       10.6976985017       42.3113820460  TIP3      4669            0.0000000000
     27807      4769  TIP3      H2             11.5904959273       11.1557770048       43.7090058349  TIP3      4669            0.0000000000
     27808      4770  TIP3      OH2            18.3008571722       26.8218178934       43.5424157737  TIP3      4670            0.0000000000
     27809      4770  TIP3      H1             19.2420547611       26.9762952389       43.7180839304  TIP3      4670            0.0000000000
     27810      4770  TIP3      H2             18.3006817331       25.8839184469       43.2831589145  TIP3      4670            0.0000000000
     27811      4771  TIP3      OH2            11.4744388308       26.2736463803       42.5006779049  TIP3      4671            0.0000000000
     27812      4771  TIP3      H1             10.7212189312       26.4731563862       43.0878790142  TIP3      4671            0.0000000000
     27813      4771  TIP3      H2             12.1411194381       26.8356566213       42.9055620514  TIP3      4671            0.0000000000
     27814      4772  TIP3      OH2            27.5453225220       12.5736790808       44.5455535256  TIP3      4672            0.0000000000
     27815      4772  TIP3      H1             28.4133236477       12.9887479119       44.4058362727  TIP3      4672            0.0000000000
     27816      4772  TIP3      H2             26.9706273150       13.3491087773       44.5458522872  TIP3      4672            0.0000000000
     27817      4773  TIP3      OH2            29.3118351082       17.9222020450       43.5638441729  TIP3      4673            0.0000000000
     27818      4773  TIP3      H1             29.4500640056       18.6305010967       44.2105449257  TIP3      4673            0.0000000000
     27819      4773  TIP3      H2             28.4113729427       17.6209290252       43.7914832535  TIP3      4673            0.0000000000
     27820      4774  TIP3      OH2            29.0311213507       15.0205602334       43.6079723813  TIP3      4674            0.0000000000
     27821      4774  TIP3      H1             29.0998549689       15.9003287548       44.0154336730  TIP3      4674            0.0000000000
     27822      4774  TIP3      H2             28.2775143196       15.1872314363       43.0192827252  TIP3      4674            0.0000000000
     27823      4775  TIP3      OH2            28.0248724886       21.5303585711       43.5076357441  TIP3      4675            0.0000000000
     27824      4775  TIP3      H1             28.9985907243       21.4919216329       43.6748035736  TIP3      4675            0.0000000000
     27825      4775  TIP3      H2             27.9778519328       21.2464768559       42.5750936503  TIP3      4675            0.0000000000
     27826      4776  TIP3      OH2            29.0122039901        9.5321167763       44.9370178144  TIP3      4676            0.0000000000
     27827      4776  TIP3      H1             29.2319080961       10.3095123607       44.3983902641  TIP3      4676            0.0000000000
     27828      4776  TIP3      H2             28.2425889784        9.8249278577       45.4488549430  TIP3      4676            0.0000000000
     27829      4777  TIP3      OH2           -13.5205455326       27.1601857427       44.3810805394  TIP3      4677            0.0000000000
     27830      4777  TIP3      H1            -14.4531080360       27.4192363715       44.4063728705  TIP3      4677            0.0000000000
     27831      4777  TIP3      H2            -13.1243668654       28.0146114926       44.1503738674  TIP3      4677            0.0000000000
     27832      4778  TIP3      OH2           -27.4138365618       27.6495912604       45.3159027198  TIP3      4678            0.0000000000
     27833      4778  TIP3      H1            -27.2809043223       28.6158212148       45.3678031322  TIP3      4678            0.0000000000
     27834      4778  TIP3      H2            -28.2131440717       27.5513335142       44.7675623243  TIP3      4678            0.0000000000
     27835      4779  TIP3      OH2             5.4440687247       27.5410405403       44.3242043490  TIP3      4679            0.0000000000
     27836      4779  TIP3      H1              4.5182616121       27.3732854435       44.5577790151  TIP3      4679            0.0000000000
     27837      4779  TIP3      H2              5.3728801736       28.4361303342       43.9397539978  TIP3      4679            0.0000000000
     27838      4780  TIP3      OH2            -8.6470479107       27.4321391735       44.6230294695  TIP3      4680            0.0000000000
     27839      4780  TIP3      H1             -8.1069914802       28.1581841330       44.9971246089  TIP3      4680            0.0000000000
     27840      4780  TIP3      H2             -8.1712111093       26.6459896868       44.9716891420  TIP3      4680            0.0000000000
     27841      4781  TIP3      OH2            24.2368052935       27.4923813579       44.1608761870  TIP3      4681            0.0000000000
     27842      4781  TIP3      H1             23.3365165200       27.1358304786       44.0528756917  TIP3      4681            0.0000000000
     27843      4781  TIP3      H2             24.0479361075       28.4511043475       44.1993534749  TIP3      4681            0.0000000000
     27844      4782  TIP3      OH2            10.2768549394       27.5722442378      -45.0527315855  TIP3      4682            0.0000000000
     27845      4782  TIP3      H1             10.7744278497       28.3080509830      -44.6497388836  TIP3      4682            0.0000000000
     27846      4782  TIP3      H2              9.3983528550       27.6532458290      -44.6349512353  TIP3      4682            0.0000000000
     27847      4783  TIP3      OH2            29.0352822061       27.9154265224       44.2690077373  TIP3      4683            0.0000000000
     27848      4783  TIP3      H1             28.9905801380       28.8808624259       44.4119445656  TIP3      4683            0.0000000000
     27849      4783  TIP3      H2             28.3363965283       27.5654897528       44.8464804390  TIP3      4683            0.0000000000
     27850      4784  TIP3      OH2           -23.4277812069      -13.4199869350       44.5921702871  TIP3      4684            0.0000000000
     27851      4784  TIP3      H1            -23.0324915996      -12.6031851757       44.9397253657  TIP3      4684            0.0000000000
     27852      4784  TIP3      H2            -24.2722499823      -13.0556631293       44.2694110064  TIP3      4684            0.0000000000
     27853      4785  TIP3      OH2           -16.1195049817      -23.0180114550      -44.9179473014  TIP3      4685            0.0000000000
     27854      4785  TIP3      H1            -16.5022066877      -23.4906901275      -44.1429480651  TIP3      4685            0.0000000000
     27855      4785  TIP3      H2            -15.3752620410      -22.5702286128      -44.4776171654  TIP3      4685            0.0000000000
     27856      4786  TIP3      OH2           -12.9287825994      -16.5317524864      -45.0451240443  TIP3      4686            0.0000000000
     27857      4786  TIP3      H1            -13.8011538502      -16.3344862389      -44.6654230584  TIP3      4686            0.0000000000
     27858      4786  TIP3      H2            -12.5212947906      -15.6609964824      -45.2048752886  TIP3      4686            0.0000000000
     27859      4787  TIP3      OH2           -10.5631833767      -28.3138387909       45.0674719770  TIP3      4687            0.0000000000
     27860      4787  TIP3      H1            -10.7315158254      -28.8504020847       44.2734804128  TIP3      4687            0.0000000000
     27861      4787  TIP3      H2            -10.5653613665      -27.4032424634       44.6926776841  TIP3      4687            0.0000000000
     27862      4788  TIP3      OH2            -4.2897143593      -13.3039102798       44.6363570554  TIP3      4688            0.0000000000
     27863      4788  TIP3      H1             -3.6176439830      -12.6435965112       44.8717809054  TIP3      4688            0.0000000000
     27864      4788  TIP3      H2             -5.0848631499      -12.7442969567       44.5213742551  TIP3      4688            0.0000000000
     27865      4789  TIP3      OH2             2.6485492611      -22.9169117983      -45.0843354149  TIP3      4689            0.0000000000
     27866      4789  TIP3      H1              2.2386203434      -23.3696176042      -44.3023252890  TIP3      4689            0.0000000000
     27867      4789  TIP3      H2              3.5053740553      -22.6478764563      -44.7146635410  TIP3      4689            0.0000000000
     27868      4790  TIP3      OH2             5.8426368789      -16.3066337180      -45.0858847657  TIP3      4690            0.0000000000
     27869      4790  TIP3      H1              5.0815540489      -16.3236405103      -44.4667023584  TIP3      4690            0.0000000000
     27870      4790  TIP3      H2              6.2851231590      -15.4771153906      -44.8448958648  TIP3      4690            0.0000000000
     27871      4791  TIP3      OH2             8.3275252770      -28.3279020632       44.9580668486  TIP3      4691            0.0000000000
     27872      4791  TIP3      H1              8.3436188367      -28.7834992636       44.0999094651  TIP3      4691            0.0000000000
     27873      4791  TIP3      H2              8.3589456130      -27.3912674312       44.6575130536  TIP3      4691            0.0000000000
     27874      4792  TIP3      OH2            14.3986588840      -13.1506671859       44.6502107211  TIP3      4692            0.0000000000
     27875      4792  TIP3      H1             14.6920910575      -12.3868280201       45.1694344190  TIP3      4692            0.0000000000
     27876      4792  TIP3      H2             13.5891764881      -12.7733330054       44.2682751417  TIP3      4692            0.0000000000
     27877      4793  TIP3      OH2            21.3067232332      -22.7021828747      -44.9858181890  TIP3      4693            0.0000000000
     27878      4793  TIP3      H1             20.9573862353      -23.1964007340      -44.2030711547  TIP3      4693            0.0000000000
     27879      4793  TIP3      H2             22.2680057601      -22.7193802453      -44.7775659174  TIP3      4693            0.0000000000
     27880      4794  TIP3      OH2            24.7933178337      -16.2108925590      -45.0834085089  TIP3      4694            0.0000000000
     27881      4794  TIP3      H1             23.9907843928      -16.2846112243      -44.5264332696  TIP3      4694            0.0000000000
     27882      4794  TIP3      H2             25.2534813787      -15.4381374548      -44.6882730975  TIP3      4694            0.0000000000
     27883      4795  TIP3      OH2            26.3228016572      -28.4855596910       45.1811416383  TIP3      4695            0.0000000000
     27884      4795  TIP3      H1             26.8013238145      -29.2921089093       44.9204094746  TIP3      4695            0.0000000000
     27885      4795  TIP3      H2             26.4059738865      -27.9256863110       44.3714688172  TIP3      4695            0.0000000000
     27886      4796  TIP3      OH2           -23.5091236192        5.5431119288       44.6547983847  TIP3      4696            0.0000000000
     27887      4796  TIP3      H1            -23.2572392539        6.3982213328       45.0254579133  TIP3      4696            0.0000000000
     27888      4796  TIP3      H2            -24.3064307029        5.7936771548       44.1578143553  TIP3      4696            0.0000000000
     27889      4797  TIP3      OH2           -16.2150141650       -3.8601786634      -44.7897814883  TIP3      4697            0.0000000000
     27890      4797  TIP3      H1            -16.4434637225       -4.3775486617      -43.9802255757  TIP3      4697            0.0000000000
     27891      4797  TIP3      H2            -15.2907458423       -3.6336209068      -44.5823008944  TIP3      4697            0.0000000000
     27892      4798  TIP3      OH2           -12.7063396061        2.6563970515      -44.6977004318  TIP3      4698            0.0000000000
     27893      4798  TIP3      H1            -13.5369756952        2.8413989066      -44.2241815661  TIP3      4698            0.0000000000
     27894      4798  TIP3      H2            -12.6516573903        3.3481095720      -45.3889366939  TIP3      4698            0.0000000000
     27895      4799  TIP3      OH2           -11.2778221517       -9.5131119231      -44.2500082302  TIP3      4699            0.0000000000
     27896      4799  TIP3      H1            -10.4101840440       -9.9525153318      -44.3885287206  TIP3      4699            0.0000000000
     27897      4799  TIP3      H2            -11.2811857108       -9.0206692800      -45.0976194023  TIP3      4699            0.0000000000
     27898      4800  TIP3      OH2            -4.3902593651        5.6700199006       44.7795985104  TIP3      4700            0.0000000000
     27899      4800  TIP3      H1             -3.7203961841        6.3703452751       44.8048753366  TIP3      4700            0.0000000000
     27900      4800  TIP3      H2             -5.1465579864        6.1913867089       44.4609949962  TIP3      4700            0.0000000000
     27901      4801  TIP3      OH2             2.9282778181       -4.1793553208      -45.0701863939  TIP3      4701            0.0000000000
     27902      4801  TIP3      H1              2.7346730601       -4.5044363056      -44.1620425409  TIP3      4701            0.0000000000
     27903      4801  TIP3      H2              3.7201494034       -3.6441069806      -44.9101869575  TIP3      4701            0.0000000000
     27904      4802  TIP3      OH2             5.8011776925        2.4405649491      -45.1033520262  TIP3      4702            0.0000000000
     27905      4802  TIP3      H1              4.9414923707        2.5757985499      -44.6599717308  TIP3      4702            0.0000000000
     27906      4802  TIP3      H2              6.2376693408        3.3015222051      -44.9872549141  TIP3      4702            0.0000000000
     27907      4803  TIP3      OH2             7.5327169683       -9.5135736423      -44.3539293964  TIP3      4703            0.0000000000
     27908      4803  TIP3      H1              8.3941050803       -9.8887260512      -44.6392980690  TIP3      4703            0.0000000000
     27909      4803  TIP3      H2              7.3874759481       -8.8899985272      -45.0852397870  TIP3      4703            0.0000000000
     27910      4804  TIP3      OH2            14.4030921750        5.5435417097       44.5610315204  TIP3      4704            0.0000000000
     27911      4804  TIP3      H1             14.8892389635        6.2987203447       44.9240010251  TIP3      4704            0.0000000000
     27912      4804  TIP3      H2             13.5855911797        5.9918000041       44.2800864455  TIP3      4704            0.0000000000
     27913      4805  TIP3      OH2            21.3027496746       -3.7074758566      -44.4569150795  TIP3      4705            0.0000000000
     27914      4805  TIP3      H1             21.1495633519       -4.4291028835      -43.7993355123  TIP3      4705            0.0000000000
     27915      4805  TIP3      H2             22.2806008361       -3.6302953273      -44.4001195478  TIP3      4705            0.0000000000
     27916      4806  TIP3      OH2            24.7673308782        2.8299127847      -45.0444385563  TIP3      4706            0.0000000000
     27917      4806  TIP3      H1             23.8778175230        2.7324512827      -44.6410808459  TIP3      4706            0.0000000000
     27918      4806  TIP3      H2             25.1600082754        3.5299272475      -44.4746319265  TIP3      4706            0.0000000000
     27919      4807  TIP3      OH2            26.5075332583       -9.4792353933      -44.1341043769  TIP3      4707            0.0000000000
     27920      4807  TIP3      H1             26.0045161621      -10.2822066423      -44.3594805579  TIP3      4707            0.0000000000
     27921      4807  TIP3      H2             26.5260249895       -9.0486504921      -45.0066804208  TIP3      4707            0.0000000000
     27922      4808  TIP3      OH2           -23.3094497541       24.3961861782       44.3997194295  TIP3      4708            0.0000000000
     27923      4808  TIP3      H1            -22.7148230637       25.1803887803       44.4236597846  TIP3      4708            0.0000000000
     27924      4808  TIP3      H2            -24.1790189100       24.8205642106       44.2998075779  TIP3      4708            0.0000000000
     27925      4809  TIP3      OH2           -15.9443158818       14.6167270377      -44.8519606720  TIP3      4709            0.0000000000
     27926      4809  TIP3      H1            -16.2220435925       14.1688189115      -44.0172904454  TIP3      4709            0.0000000000
     27927      4809  TIP3      H2            -15.0043740224       14.8197757043      -44.6541238627  TIP3      4709            0.0000000000
     27928      4810  TIP3      OH2           -13.0521288494       21.3859695134      -44.9783922833  TIP3      4710            0.0000000000
     27929      4810  TIP3      H1            -13.8544199633       21.4801063122      -44.4251075981  TIP3      4710            0.0000000000
     27930      4810  TIP3      H2            -12.5602674506       22.1673892121      -44.6791250450  TIP3      4710            0.0000000000
     27931      4811  TIP3      OH2           -11.4411582414        9.3791550862      -44.2997416914  TIP3      4711            0.0000000000
     27932      4811  TIP3      H1            -10.5442456354        9.0585153413      -44.5380475175  TIP3      4711            0.0000000000
     27933      4811  TIP3      H2            -11.7008869578        9.7948174356      -45.1470862375  TIP3      4711            0.0000000000
     27934      4812  TIP3      OH2            -4.5134781604       24.4125843379       44.6668784403  TIP3      4712            0.0000000000
     27935      4812  TIP3      H1             -4.0822506745       25.2350399872       44.9712395751  TIP3      4712            0.0000000000
     27936      4812  TIP3      H2             -5.1980274338       24.7884615530       44.0945922919  TIP3      4712            0.0000000000
     27937      4813  TIP3      OH2             2.9280494418       14.8715190996      -45.1322486009  TIP3      4713            0.0000000000
     27938      4813  TIP3      H1              2.8089044179       14.6231073910      -44.1953147755  TIP3      4713            0.0000000000
     27939      4813  TIP3      H2              3.8795058489       15.0992437281      -45.1004285269  TIP3      4713            0.0000000000
     27940      4814  TIP3      OH2             5.9815953362       21.3225209197      -44.7943554587  TIP3      4714            0.0000000000
     27941      4814  TIP3      H1              5.2035917889       21.4666402956      -44.2191102640  TIP3      4714            0.0000000000
     27942      4814  TIP3      H2              6.3738580324       22.2122386903      -44.8493796358  TIP3      4714            0.0000000000
     27943      4815  TIP3      OH2             7.5361386605        9.4086075424      -44.2796142140  TIP3      4715            0.0000000000
     27944      4815  TIP3      H1              8.3897464750        8.9646523032      -44.4691345045  TIP3      4715            0.0000000000
     27945      4815  TIP3      H2              7.4852542291        9.9825619768      -45.0781971677  TIP3      4715            0.0000000000
     27946      4816  TIP3      OH2            14.2270778217       24.4556339732       44.6936280520  TIP3      4716            0.0000000000
     27947      4816  TIP3      H1             14.8629688667       25.1738957752       44.8793571103  TIP3      4716            0.0000000000
     27948      4816  TIP3      H2             13.6197246860       24.9197863898       44.1024164587  TIP3      4716            0.0000000000
     27949      4817  TIP3      OH2            21.0895502510       15.3762389754      -44.5720863878  TIP3      4717            0.0000000000
     27950      4817  TIP3      H1             21.1788391711       14.5859170829      -43.9903221561  TIP3      4717            0.0000000000
     27951      4817  TIP3      H2             21.9993755056       15.7022554889      -44.6389941654  TIP3      4717            0.0000000000
     27952      4818  TIP3      OH2            24.8335047617       21.5387978033      -44.9756044233  TIP3      4718            0.0000000000
     27953      4818  TIP3      H1             24.1242566369       21.3881747045      -44.3096140941  TIP3      4718            0.0000000000
     27954      4818  TIP3      H2             25.2544698722       22.3234640922      -44.5736536341  TIP3      4718            0.0000000000
     27955      4819  TIP3      OH2            26.1973732759        9.5965108640      -44.2184994078  TIP3      4719            0.0000000000
     27956      4819  TIP3      H1             26.4962610209        8.9782718141      -44.9046079915  TIP3      4719            0.0000000000
     27957      4819  TIP3      H2             26.3489705287       10.4422933045      -44.6734394033  TIP3      4719            0.0000000000
     27958      4820  TIP3      OH2           -10.9280048588       28.0177312813      -43.9806240443  TIP3      4720            0.0000000000
     27959      4820  TIP3      H1            -10.2969918998       27.5657113104      -44.5835546591  TIP3      4720            0.0000000000
     27960      4820  TIP3      H2            -10.5090221790       28.8810232230      -43.8919967142  TIP3      4720            0.0000000000
     27961      4821  TIP3      OH2             7.7274446194       27.9837117776      -44.1409929727  TIP3      4721            0.0000000000
     27962      4821  TIP3      H1              6.8993882068       27.7014457311      -44.6013649487  TIP3      4721            0.0000000000
     27963      4821  TIP3      H2              7.7377319752       28.9478823059      -44.2313427770  TIP3      4721            0.0000000000
     27964      4822  TIP3      OH2            26.5755627174       27.8902668254      -44.0209331163  TIP3      4722            0.0000000000
     27965      4822  TIP3      H1             25.6837268075       27.5098484115      -44.1355136832  TIP3      4722            0.0000000000
     27966      4822  TIP3      H2             26.4357680204       28.7031617375      -43.5042447031  TIP3      4722            0.0000000000
     27967      4823  TIP3      OH2           -19.1906012766      -21.6284002921      -43.1563806615  TIP3      4723            0.0000000000
     27968      4823  TIP3      H1            -18.3226633786      -21.3710325142      -42.8396744732  TIP3      4723            0.0000000000
     27969      4823  TIP3      H2            -18.9618459753      -21.7799339659      -44.1048005306  TIP3      4723            0.0000000000
     27970      4824  TIP3      OH2           -12.3789423452      -14.3996777282      -43.3151248844  TIP3      4724            0.0000000000
     27971      4824  TIP3      H1            -12.3866911133      -13.5486202692      -42.8452712440  TIP3      4724            0.0000000000
     27972      4824  TIP3      H2            -11.4799200189      -14.6737200466      -43.0935326076  TIP3      4724            0.0000000000
     27973      4825  TIP3      OH2           -16.2356397249      -11.8999248062      -43.1496832641  TIP3      4725            0.0000000000
     27974      4825  TIP3      H1            -15.7237674208      -12.6583678441      -43.4784641215  TIP3      4725            0.0000000000
     27975      4825  TIP3      H2            -16.3753178855      -12.1646486583      -42.2257755931  TIP3      4725            0.0000000000
     27976      4826  TIP3      OH2           -15.1276196647      -19.9497345326      -44.0293460936  TIP3      4726            0.0000000000
     27977      4826  TIP3      H1            -15.0247795695      -20.4141097182      -44.8755439704  TIP3      4726            0.0000000000
     27978      4826  TIP3      H2            -15.0430185453      -19.0243677049      -44.3009360233  TIP3      4726            0.0000000000
     27979      4827  TIP3      OH2           -19.3165494699      -26.0893020429      -43.6677063321  TIP3      4727            0.0000000000
     27980      4827  TIP3      H1            -19.7403378794      -25.6974838097      -42.8722478061  TIP3      4727            0.0000000000
     27981      4827  TIP3      H2            -19.2518227246      -27.0120529247      -43.3831858718  TIP3      4727            0.0000000000
     27982      4828  TIP3      OH2           -22.2231011597      -24.4937031773      -44.0491904220  TIP3      4728            0.0000000000
     27983      4828  TIP3      H1            -22.4652674209      -24.7039390431      -43.1223847739  TIP3      4728            0.0000000000
     27984      4828  TIP3      H2            -23.0442329784      -24.0705728055      -44.3590434900  TIP3      4728            0.0000000000
     27985      4829  TIP3      OH2           -24.0357768485      -22.4911863419      -42.9244488983  TIP3      4729            0.0000000000
     27986      4829  TIP3      H1            -24.7000311563      -22.6190896028      -43.6370471663  TIP3      4729            0.0000000000
     27987      4829  TIP3      H2            -23.2526478646      -22.2455022648      -43.4460168714  TIP3      4729            0.0000000000
     27988      4830  TIP3      OH2           -17.0341213937      -24.5335803637      -42.7696971500  TIP3      4730            0.0000000000
     27989      4830  TIP3      H1            -17.9428969132      -24.8664713797      -42.8653806047  TIP3      4730            0.0000000000
     27990      4830  TIP3      H2            -16.8956018132      -24.6645708629      -41.8044749361  TIP3      4730            0.0000000000
     27991      4831  TIP3      OH2           -26.4205552176      -20.1322149492      -43.7975842494  TIP3      4731            0.0000000000
     27992      4831  TIP3      H1            -26.0471399238      -19.6067768269      -43.0748333759  TIP3      4731            0.0000000000
     27993      4831  TIP3      H2            -27.3544691501      -20.1589943021      -43.5459627450  TIP3      4731            0.0000000000
     27994      4832  TIP3      OH2           -15.1385978765      -16.6181422110      -43.0408590455  TIP3      4732            0.0000000000
     27995      4832  TIP3      H1            -14.8773932507      -16.3310390354      -42.1528537035  TIP3      4732            0.0000000000
     27996      4832  TIP3      H2            -16.0269880681      -16.2364803544      -43.1142568339  TIP3      4732            0.0000000000
     27997      4833  TIP3      OH2           -11.3784305616      -11.9044411396      -42.6236863712  TIP3      4733            0.0000000000
     27998      4833  TIP3      H1            -11.0163550032      -11.5816433708      -43.4697681129  TIP3      4733            0.0000000000
     27999      4833  TIP3      H2            -11.8490704672      -11.1359661269      -42.2786573299  TIP3      4733            0.0000000000
     28000      4834  TIP3      OH2           -20.8104676560      -15.3978032481      -43.5427066127  TIP3      4734            0.0000000000
     28001      4834  TIP3      H1            -21.3814717644      -15.7537700522      -44.2640953131  TIP3      4734            0.0000000000
     28002      4834  TIP3      H2            -21.5422345280      -15.0669646676      -42.9619498963  TIP3      4734            0.0000000000
     28003      4835  TIP3      OH2           -23.0003733104      -14.8980019818      -42.0471499551  TIP3      4735            0.0000000000
     28004      4835  TIP3      H1            -23.1427152362      -15.6337372309      -41.4184922087  TIP3      4735            0.0000000000
     28005      4835  TIP3      H2            -23.0057381928      -14.1494922701      -41.4362507390  TIP3      4735            0.0000000000
     28006      4836  TIP3      OH2           -25.8062915406      -15.6851562632      -43.0638025299  TIP3      4736            0.0000000000
     28007      4836  TIP3      H1            -25.1673210439      -15.0340724596      -42.7163612317  TIP3      4736            0.0000000000
     28008      4836  TIP3      H2            -25.2625629111      -16.4878348825      -43.1115073616  TIP3      4736            0.0000000000
     28009      4837  TIP3      OH2           -26.9732463506      -23.1548247945      -43.8312795907  TIP3      4737            0.0000000000
     28010      4837  TIP3      H1            -26.9831427152      -22.1943786046      -43.7877560648  TIP3      4737            0.0000000000
     28011      4837  TIP3      H2            -27.7378221474      -23.3881070772      -43.2924516508  TIP3      4737            0.0000000000
     28012      4838  TIP3      OH2           -19.4640998667      -13.2018459843      -44.3350130086  TIP3      4738            0.0000000000
     28013      4838  TIP3      H1            -19.9510127730      -14.0004115804      -44.0537617244  TIP3      4738            0.0000000000
     28014      4838  TIP3      H2            -19.1637093949      -13.4854989636      -45.2317000206  TIP3      4738            0.0000000000
     28015      4839  TIP3      OH2           -14.7221105667      -13.9689100106      -44.6530556653  TIP3      4739            0.0000000000
     28016      4839  TIP3      H1            -14.0582757487      -14.3883955733      -44.0538759691  TIP3      4739            0.0000000000
     28017      4839  TIP3      H2            -14.2752485842      -13.1257115921      -44.8319839009  TIP3      4739            0.0000000000
     28018      4840  TIP3      OH2           -24.4482615064      -17.7375422881      -44.4240417041  TIP3      4740            0.0000000000
     28019      4840  TIP3      H1            -24.4935196804      -18.3435991971      -43.6553916795  TIP3      4740            0.0000000000
     28020      4840  TIP3      H2            -23.6577921128      -18.1320701359      -44.8536569001  TIP3      4740            0.0000000000
     28021      4841  TIP3      OH2           -18.3519104415      -16.3912473744      -42.9301595432  TIP3      4741            0.0000000000
     28022      4841  TIP3      H1            -19.2902436690      -16.1935425288      -43.1240238742  TIP3      4741            0.0000000000
     28023      4841  TIP3      H2            -18.2195192705      -17.2151572423      -43.4017975400  TIP3      4741            0.0000000000
     28024      4842  TIP3      OH2           -23.4643263186      -19.4812187273      -42.6683425109  TIP3      4742            0.0000000000
     28025      4842  TIP3      H1            -23.6320246476      -20.1983136295      -42.0371710740  TIP3      4742            0.0000000000
     28026      4842  TIP3      H2            -22.7709588563      -19.9058660542      -43.2188677627  TIP3      4742            0.0000000000
     28027      4843  TIP3      OH2           -21.7669424506      -21.2079405567      -43.9926070392  TIP3      4743            0.0000000000
     28028      4843  TIP3      H1            -21.6033587062      -22.0423383172      -44.4693844120  TIP3      4743            0.0000000000
     28029      4843  TIP3      H2            -20.8681751042      -21.0141472670      -43.6405619878  TIP3      4743            0.0000000000
     28030      4844  TIP3      OH2           -12.0700871280      -18.8432715426      -44.6753858334  TIP3      4744            0.0000000000
     28031      4844  TIP3      H1            -12.8429769043      -18.9463809697      -45.2543649536  TIP3      4744            0.0000000000
     28032      4844  TIP3      H2            -12.0265014348      -17.8543131856      -44.6985460237  TIP3      4744            0.0000000000
     28033      4845  TIP3      OH2           -21.7646705578      -10.5846973928      -42.8803820462  TIP3      4745            0.0000000000
     28034      4845  TIP3      H1            -20.7943603896      -10.4406876723      -42.8658635792  TIP3      4745            0.0000000000
     28035      4845  TIP3      H2            -21.9539524825      -10.4118583784      -43.8237380118  TIP3      4745            0.0000000000
     28036      4846  TIP3      OH2           -28.4364277681      -16.2523408577      -43.5910289362  TIP3      4746            0.0000000000
     28037      4846  TIP3      H1            -27.4663385844      -16.0727510863      -43.5164186501  TIP3      4746            0.0000000000
     28038      4846  TIP3      H2            -28.5315772040      -16.2110108361      -44.5585302067  TIP3      4746            0.0000000000
     28039      4847  TIP3      OH2           -10.6257715387      -19.8814217815      -42.3462134031  TIP3      4747            0.0000000000
     28040      4847  TIP3      H1            -11.0942893131      -19.6914659798      -43.1862411089  TIP3      4747            0.0000000000
     28041      4847  TIP3      H2            -11.2323582079      -19.4446852171      -41.7202747498  TIP3      4747            0.0000000000
     28042      4848  TIP3      OH2           -13.1160889653      -22.8433491102      -44.1038959529  TIP3      4748            0.0000000000
     28043      4848  TIP3      H1            -12.9514574119      -22.5858782713      -45.0392924039  TIP3      4748            0.0000000000
     28044      4848  TIP3      H2            -13.2779989977      -23.7972040861      -44.2138630201  TIP3      4748            0.0000000000
     28045      4849  TIP3      OH2           -13.4206447076      -25.6016822032      -44.5881498244  TIP3      4749            0.0000000000
     28046      4849  TIP3      H1            -13.0975391815      -26.2808938357      -43.9833523470  TIP3      4749            0.0000000000
     28047      4849  TIP3      H2            -14.3724561115      -25.6210048992      -44.4344397244  TIP3      4749            0.0000000000
     28048      4850  TIP3      OH2           -11.5693813194      -26.9992341707      -42.6305793872  TIP3      4750            0.0000000000
     28049      4850  TIP3      H1            -11.2158148200      -27.6362052234      -43.2818094118  TIP3      4750            0.0000000000
     28050      4850  TIP3      H2            -11.2192134613      -26.1615279644      -42.9587610412  TIP3      4750            0.0000000000
     28051      4851  TIP3      OH2           -26.0238445544      -26.1047350615      -43.7951336303  TIP3      4751            0.0000000000
     28052      4851  TIP3      H1            -26.6122135392      -26.8766622234      -43.7907681865  TIP3      4751            0.0000000000
     28053      4851  TIP3      H2            -25.9170986137      -25.9144389278      -42.8576048364  TIP3      4751            0.0000000000
     28054      4852  TIP3      OH2           -19.0276364311      -10.5367856801      -43.1312264221  TIP3      4752            0.0000000000
     28055      4852  TIP3      H1            -18.0634484320      -10.4597482639      -43.2102864069  TIP3      4752            0.0000000000
     28056      4852  TIP3      H2            -19.1798135052      -11.3688123033      -43.6100240953  TIP3      4752            0.0000000000
     28057      4853  TIP3      OH2           -26.0978683201      -12.4278908348      -44.0184642795  TIP3      4753            0.0000000000
     28058      4853  TIP3      H1            -26.4185869653      -11.5177169003      -44.1489710084  TIP3      4753            0.0000000000
     28059      4853  TIP3      H2            -26.2313200366      -12.4570930586      -43.0532800525  TIP3      4753            0.0000000000
     28060      4854  TIP3      OH2            -0.4103046800      -21.6741815128      -43.1841333327  TIP3      4754            0.0000000000
     28061      4854  TIP3      H1              0.4414590593      -21.5594498128      -42.7576705006  TIP3      4754            0.0000000000
     28062      4854  TIP3      H2             -0.1353548222      -21.7447772511      -44.1195927104  TIP3      4754            0.0000000000
     28063      4855  TIP3      OH2             6.5470718149      -14.3343807517      -43.4273427880  TIP3      4755            0.0000000000
     28064      4855  TIP3      H1              6.6050078616      -13.5705257920      -42.8288575532  TIP3      4755            0.0000000000
     28065      4855  TIP3      H2              7.4615009473      -14.3184551951      -43.7493092533  TIP3      4755            0.0000000000
     28066      4856  TIP3      OH2             2.7178207034      -11.9333825231      -43.1182576651  TIP3      4756            0.0000000000
     28067      4856  TIP3      H1              3.2048691125      -12.7678412022      -43.2873183693  TIP3      4756            0.0000000000
     28068      4856  TIP3      H2              2.5255122423      -12.0418635381      -42.1735642555  TIP3      4756            0.0000000000
     28069      4857  TIP3      OH2             3.6551147787      -19.9433369970      -44.0680182713  TIP3      4757            0.0000000000
     28070      4857  TIP3      H1              3.7619531580      -20.4106772301      -44.9138214899  TIP3      4757            0.0000000000
     28071      4857  TIP3      H2              3.8683705409      -19.0381262369      -44.3189937961  TIP3      4757            0.0000000000
     28072      4858  TIP3      OH2            -0.6832746694      -25.9694237618      -43.1627106526  TIP3      4758            0.0000000000
     28073      4858  TIP3      H1             -1.5027939004      -25.4426326165      -43.2589311626  TIP3      4758            0.0000000000
     28074      4858  TIP3      H2             -0.9827291428      -26.8480586079      -43.4160646623  TIP3      4758            0.0000000000
     28075      4859  TIP3      OH2            -3.3047733318      -24.9796923824      -43.8204777829  TIP3      4759            0.0000000000
     28076      4859  TIP3      H1             -3.7258843900      -25.4397429610      -43.0662115107  TIP3      4759            0.0000000000
     28077      4859  TIP3      H2             -3.8509955921      -24.1710928301      -43.7949882967  TIP3      4759            0.0000000000
     28078      4860  TIP3      OH2            -5.2253355154      -22.6735091505      -43.0700603150  TIP3      4760            0.0000000000
     28079      4860  TIP3      H1             -6.1339044630      -22.7444436288      -43.4226354794  TIP3      4760            0.0000000000
     28080      4860  TIP3      H2             -4.7552273935      -22.3029637193      -43.8426171414  TIP3      4760            0.0000000000
     28081      4861  TIP3      OH2             1.7869983945      -24.2413659635      -42.9205292989  TIP3      4761            0.0000000000
     28082      4861  TIP3      H1              0.9268393187      -24.6831729071      -42.7936780343  TIP3      4761            0.0000000000
     28083      4861  TIP3      H2              2.1664954905      -24.3725692612      -42.0325111913  TIP3      4761            0.0000000000
     28084      4862  TIP3      OH2            -7.7516909605      -20.1987279211      -43.8398819064  TIP3      4762            0.0000000000
     28085      4862  TIP3      H1             -7.5421934519      -19.6733882453      -43.0440738384  TIP3      4762            0.0000000000
     28086      4862  TIP3      H2             -8.7203143719      -20.1527864653      -43.8229927431  TIP3      4762            0.0000000000
     28087      4863  TIP3      OH2             3.8999255593      -16.5694412628      -43.0326020659  TIP3      4763            0.0000000000
     28088      4863  TIP3      H1              4.1876761606      -16.4025329569      -42.1217481311  TIP3      4763            0.0000000000
     28089      4863  TIP3      H2              2.9599623622      -16.3175230913      -42.9676041783  TIP3      4763            0.0000000000
     28090      4864  TIP3      OH2             7.4736348809      -11.7650466492      -42.6138423586  TIP3      4764            0.0000000000
     28091      4864  TIP3      H1              7.8582097653      -11.4285325740      -43.4411278762  TIP3      4764            0.0000000000
     28092      4864  TIP3      H2              7.0828476411      -10.9657917330      -42.2481001981  TIP3      4764            0.0000000000
     28093      4865  TIP3      OH2            -1.9029626779      -15.7497030434      -43.3678686907  TIP3      4765            0.0000000000
     28094      4865  TIP3      H1             -2.5306850671      -15.9679754027      -44.0991352756  TIP3      4765            0.0000000000
     28095      4865  TIP3      H2             -2.5726681915      -15.4943412049      -42.6971887605  TIP3      4765            0.0000000000
     28096      4866  TIP3      OH2            -4.0591577647      -14.9212332395      -41.9217922542  TIP3      4766            0.0000000000
     28097      4866  TIP3      H1             -4.2554813529      -15.7325411320      -41.4059311513  TIP3      4766            0.0000000000
     28098      4866  TIP3      H2             -4.1356821274      -14.2710699148      -41.2074090624  TIP3      4766            0.0000000000
     28099      4867  TIP3      OH2            -6.4458058161      -15.2655744673      -43.3152288409  TIP3      4767            0.0000000000
     28100      4867  TIP3      H1             -5.7064086762      -15.0309213327      -42.7222455944  TIP3      4767            0.0000000000
     28101      4867  TIP3      H2             -6.2110498579      -16.1900441970      -43.5229010503  TIP3      4767            0.0000000000
     28102      4868  TIP3      OH2            -8.0345282161      -23.0827170002      -43.3584968970  TIP3      4768            0.0000000000
     28103      4868  TIP3      H1             -7.9838626151      -22.1135690315      -43.4203125804  TIP3      4768            0.0000000000
     28104      4868  TIP3      H2             -8.8643502605      -23.2886217853      -43.8260722215  TIP3      4768            0.0000000000
     28105      4869  TIP3      OH2            -1.0261027934      -13.4298435791      -44.3813349843  TIP3      4769            0.0000000000
     28106      4869  TIP3      H1             -1.3334700400      -14.2644432691      -43.9674080775  TIP3      4769            0.0000000000
     28107      4869  TIP3      H2             -0.7031178590      -13.7497588135      -45.2570298212  TIP3      4769            0.0000000000
     28108      4870  TIP3      OH2             4.0333467861      -13.9159096766      -44.5809272538  TIP3      4770            0.0000000000
     28109      4870  TIP3      H1              4.7727176130      -14.3628337710      -44.1205047659  TIP3      4770            0.0000000000
     28110      4870  TIP3      H2              4.3791014201      -13.0116467042      -44.6213263678  TIP3      4770            0.0000000000
     28111      4871  TIP3      OH2            -5.4961513725      -17.6670769504      -44.2967268825  TIP3      4771            0.0000000000
     28112      4871  TIP3      H1             -5.7478299443      -18.1770742604      -43.5136176606  TIP3      4771            0.0000000000
     28113      4871  TIP3      H2             -4.8302416962      -18.2759937251      -44.6820218672  TIP3      4771            0.0000000000
     28114      4872  TIP3      OH2             0.8556257307      -16.6506377633      -42.7980713970  TIP3      4772            0.0000000000
     28115      4872  TIP3      H1             -0.1071259286      -16.5121280276      -42.7460920584  TIP3      4772            0.0000000000
     28116      4872  TIP3      H2              0.9385068113      -17.4994487139      -43.2503886992  TIP3      4772            0.0000000000
     28117      4873  TIP3      OH2            -4.2175496239      -19.6199816373      -42.7048673229  TIP3      4773            0.0000000000
     28118      4873  TIP3      H1             -4.2057296445      -20.1218160172      -41.8648936776  TIP3      4773            0.0000000000
     28119      4873  TIP3      H2             -3.7080075938      -20.1991375330      -43.2906830549  TIP3      4773            0.0000000000
     28120      4874  TIP3      OH2            -2.8060341274      -21.5440803674      -44.2356511360  TIP3      4774            0.0000000000
     28121      4874  TIP3      H1             -2.5383811890      -22.2981181077      -44.7938542535  TIP3      4774            0.0000000000
     28122      4874  TIP3      H2             -1.9848147126      -21.3915656112      -43.7065819442  TIP3      4774            0.0000000000
     28123      4875  TIP3      OH2             6.7937867161      -18.6265860849      -44.7892290542  TIP3      4775            0.0000000000
     28124      4875  TIP3      H1              6.1737230151      -18.6679536880      -45.5371865978  TIP3      4775            0.0000000000
     28125      4875  TIP3      H2              6.8916333968      -17.6456155107      -44.8045780463  TIP3      4775            0.0000000000
     28126      4876  TIP3      OH2            -3.0407153463      -10.3437577942      -42.8411653265  TIP3      4776            0.0000000000
     28127      4876  TIP3      H1             -2.0743945798      -10.5382880135      -42.8267052303  TIP3      4776            0.0000000000
     28128      4876  TIP3      H2             -3.2087774705      -10.3481117074      -43.7981098677  TIP3      4776            0.0000000000
     28129      4877  TIP3      OH2            -9.1487960078      -16.2155134862      -43.2707337831  TIP3      4777            0.0000000000
     28130      4877  TIP3      H1             -8.2274491131      -15.9580803646      -43.4669375489  TIP3      4777            0.0000000000
     28131      4877  TIP3      H2             -9.4967012956      -16.3663329491      -44.1664160778  TIP3      4777            0.0000000000
     28132      4878  TIP3      OH2             8.4073010630      -19.9506615525      -42.3702231360  TIP3      4778            0.0000000000
     28133      4878  TIP3      H1              7.8606270327      -20.0321213636      -43.1712098234  TIP3      4778            0.0000000000
     28134      4878  TIP3      H2              7.7561286926      -19.4977217813      -41.7908130259  TIP3      4778            0.0000000000
     28135      4879  TIP3      OH2             5.8453998445      -22.9283598695      -44.1120229533  TIP3      4779            0.0000000000
     28136      4879  TIP3      H1              5.9956985510      -22.7004245965      -45.0470003024  TIP3      4779            0.0000000000
     28137      4879  TIP3      H2              5.5999111429      -23.8751837694      -44.1650533611  TIP3      4779            0.0000000000
     28138      4880  TIP3      OH2             5.2618205973      -25.6382865500      -44.5660263489  TIP3      4780            0.0000000000
     28139      4880  TIP3      H1              5.6461420489      -26.0494530961      -43.7746476429  TIP3      4780            0.0000000000
     28140      4880  TIP3      H2              4.3846190854      -26.0503216031      -44.5591487616  TIP3      4780            0.0000000000
     28141      4881  TIP3      OH2             7.1653469524      -26.9306977859      -42.6463453301  TIP3      4781            0.0000000000
     28142      4881  TIP3      H1              7.4675656147      -27.6711510659      -43.1983353008  TIP3      4781            0.0000000000
     28143      4881  TIP3      H2              7.6460240724      -26.1756884673      -43.0120053691  TIP3      4781            0.0000000000
     28144      4882  TIP3      OH2            -7.3909213193      -25.8749673596      -44.0329362014  TIP3      4782            0.0000000000
     28145      4882  TIP3      H1             -7.4480260162      -26.5377123740      -43.3191340809  TIP3      4782            0.0000000000
     28146      4882  TIP3      H2             -7.4194744119      -25.0277354872      -43.5395162187  TIP3      4782            0.0000000000
     28147      4883  TIP3      OH2            -0.5088390170      -11.0243666925      -43.2682749294  TIP3      4783            0.0000000000
     28148      4883  TIP3      H1              0.4022454709      -10.7940212916      -43.4848768993  TIP3      4783            0.0000000000
     28149      4883  TIP3      H2             -0.6508268620      -11.8325171445      -43.8219668177  TIP3      4783            0.0000000000
     28150      4884  TIP3      OH2            -6.9596236172      -12.5752276681      -44.1120064644  TIP3      4784            0.0000000000
     28151      4884  TIP3      H1             -7.2805483921      -11.9651790533      -43.4288423142  TIP3      4784            0.0000000000
     28152      4884  TIP3      H2             -6.7642784885      -13.3749574597      -43.5882062339  TIP3      4784            0.0000000000
     28153      4885  TIP3      OH2            18.4582123196      -21.4604236048      -43.1510798496  TIP3      4785            0.0000000000
     28154      4885  TIP3      H1             19.3662464693      -21.3648952306      -42.8420599432  TIP3      4785            0.0000000000
     28155      4885  TIP3      H2             18.6391425557      -21.5972805540      -44.0974697398  TIP3      4785            0.0000000000
     28156      4886  TIP3      OH2            25.9083178715      -14.4027786918      -43.3872803187  TIP3      4786            0.0000000000
     28157      4886  TIP3      H1             26.1191752931      -13.5180248114      -43.0031676716  TIP3      4786            0.0000000000
     28158      4886  TIP3      H2             26.5256858582      -14.9358797850      -42.8790209786  TIP3      4786            0.0000000000
     28159      4887  TIP3      OH2            21.2846807151      -11.8453897239      -43.0889927511  TIP3      4787            0.0000000000
     28160      4887  TIP3      H1             21.9645540541      -12.4973311654      -43.3749226225  TIP3      4787            0.0000000000
     28161      4887  TIP3      H2             21.2110091585      -12.0695769256      -42.1548957335  TIP3      4787            0.0000000000
     28162      4888  TIP3      OH2            22.8663159683      -19.4956369306      -43.9583705779  TIP3      4788            0.0000000000
     28163      4888  TIP3      H1             22.6865483489      -19.9459199690      -44.8044705897  TIP3      4788            0.0000000000
     28164      4888  TIP3      H2             23.7399430174      -19.1120343627      -44.1473946003  TIP3      4788            0.0000000000
     28165      4889  TIP3      OH2            18.2216715264      -25.7989745962      -43.3032021884  TIP3      4789            0.0000000000
     28166      4889  TIP3      H1             17.3870395656      -25.2987842466      -43.3789748439  TIP3      4789            0.0000000000
     28167      4889  TIP3      H2             17.8973617445      -26.7008292125      -43.3796714743  TIP3      4789            0.0000000000
     28168      4890  TIP3      OH2            15.4999872307      -24.9619016814      -43.8615458460  TIP3      4790            0.0000000000
     28169      4890  TIP3      H1             15.1269038071      -25.2760345239      -43.0010160621  TIP3      4790            0.0000000000
     28170      4890  TIP3      H2             14.9793765191      -24.1344484448      -43.9192881517  TIP3      4790            0.0000000000
     28171      4891  TIP3      OH2            13.6361571006      -22.7980737026      -43.1337263631  TIP3      4791            0.0000000000
     28172      4891  TIP3      H1             12.7470213990      -22.7488542370      -43.5310136080  TIP3      4791            0.0000000000
     28173      4891  TIP3      H2             14.1701251470      -22.2229264593      -43.7121454648  TIP3      4791            0.0000000000
     28174      4892  TIP3      OH2            20.5978898995      -24.2786890090      -42.9430390943  TIP3      4792            0.0000000000
     28175      4892  TIP3      H1             19.7755798458      -24.8075753198      -42.8617463129  TIP3      4792            0.0000000000
     28176      4892  TIP3      H2             20.9563497102      -24.3982176027      -42.0438845813  TIP3      4792            0.0000000000
     28177      4893  TIP3      OH2            10.9818098254      -20.0904068323      -43.7926050631  TIP3      4793            0.0000000000
     28178      4893  TIP3      H1             11.3751144176      -19.5643820332      -43.0829684346  TIP3      4793            0.0000000000
     28179      4893  TIP3      H2             10.0341637709      -20.0180114661      -43.5370357340  TIP3      4793            0.0000000000
     28180      4894  TIP3      OH2            22.7913816256      -16.6412996273      -42.9547654793  TIP3      4794            0.0000000000
     28181      4894  TIP3      H1             23.0278042701      -16.5730310426      -42.0183268486  TIP3      4794            0.0000000000
     28182      4894  TIP3      H2             21.9641054244      -16.1374607157      -42.9823279203  TIP3      4794            0.0000000000
     28183      4895  TIP3      OH2            26.5044448052      -11.9915266274      -42.5412529057  TIP3      4795            0.0000000000
     28184      4895  TIP3      H1             26.8799873982      -11.2320660842      -43.0017211888  TIP3      4795            0.0000000000
     28185      4895  TIP3      H2             26.4341771549      -11.7046118303      -41.6044084818  TIP3      4795            0.0000000000
     28186      4896  TIP3      OH2            16.8087634934      -15.7318918735      -43.4554455826  TIP3      4796            0.0000000000
     28187      4896  TIP3      H1             16.1653614080      -15.9470848780      -44.1740282048  TIP3      4796            0.0000000000
     28188      4896  TIP3      H2             16.1722283492      -15.3027001795      -42.8453990788  TIP3      4796            0.0000000000
     28189      4897  TIP3      OH2            14.6898046684      -14.9290393362      -41.9266608954  TIP3      4797            0.0000000000
     28190      4897  TIP3      H1             14.4795046097      -15.7965754398      -41.5146386006  TIP3      4797            0.0000000000
     28191      4897  TIP3      H2             14.5759042898      -14.3817957911      -41.1325231660  TIP3      4797            0.0000000000
     28192      4898  TIP3      OH2            12.3136688666      -15.2508325749      -43.3265176704  TIP3      4798            0.0000000000
     28193      4898  TIP3      H1             13.0876244113      -14.9467006632      -42.8131839485  TIP3      4798            0.0000000000
     28194      4898  TIP3      H2             12.5041259116      -16.1986432602      -43.4482329861  TIP3      4798            0.0000000000
     28195      4899  TIP3      OH2            10.5574823035      -23.0790571765      -43.3741295806  TIP3      4799            0.0000000000
     28196      4899  TIP3      H1             10.5710846635      -22.1333613941      -43.5965778797  TIP3      4799            0.0000000000
     28197      4899  TIP3      H2              9.6462186784      -23.3301926302      -43.5836885946  TIP3      4799            0.0000000000
     28198      4900  TIP3      OH2            17.9612860644      -13.5271289706      -44.3884161751  TIP3      4800            0.0000000000
     28199      4900  TIP3      H1             17.4699150397      -14.3039584532      -44.0516361262  TIP3      4800            0.0000000000
     28200      4900  TIP3      H2             18.1848744827      -13.7986046544      -45.3080926290  TIP3      4800            0.0000000000
     28201      4901  TIP3      OH2            23.1771611965      -13.5414796456      -44.7322034707  TIP3      4801            0.0000000000
     28202      4901  TIP3      H1             23.8254458079      -13.8579660116      -44.0861005553  TIP3      4801            0.0000000000
     28203      4901  TIP3      H2             23.7357876148      -13.0969376746      -45.3961825614  TIP3      4801            0.0000000000
     28204      4902  TIP3      OH2            13.2965544206      -17.7444891707      -44.2733986649  TIP3      4802            0.0000000000
     28205      4902  TIP3      H1             13.1311278878      -18.4250592510      -43.6021400975  TIP3      4802            0.0000000000
     28206      4902  TIP3      H2             14.1445701923      -18.0946232588      -44.6374593454  TIP3      4802            0.0000000000
     28207      4903  TIP3      OH2            19.4469493449      -16.7274209481      -42.7422680152  TIP3      4803            0.0000000000
     28208      4903  TIP3      H1             18.5010320100      -16.6389425574      -42.9680733014  TIP3      4803            0.0000000000
     28209      4903  TIP3      H2             19.7604624164      -17.3705199347      -43.3889811081  TIP3      4803            0.0000000000
     28210      4904  TIP3      OH2            14.4269013317      -19.7128830594      -42.5627638143  TIP3      4804            0.0000000000
     28211      4904  TIP3      H1             14.8407645598      -20.0694033443      -41.7560930250  TIP3      4804            0.0000000000
     28212      4904  TIP3      H2             14.9343264224      -20.1855708142      -43.2475158304  TIP3      4804            0.0000000000
     28213      4905  TIP3      OH2            15.9131863053      -21.5152955439      -44.1231149026  TIP3      4805            0.0000000000
     28214      4905  TIP3      H1             16.2221125048      -22.0623178828      -44.8639910023  TIP3      4805            0.0000000000
     28215      4905  TIP3      H2             16.7633194488      -21.3076351461      -43.6672423522  TIP3      4805            0.0000000000
     28216      4906  TIP3      OH2            25.4115099001      -18.6793522846      -44.7718074346  TIP3      4806            0.0000000000
     28217      4906  TIP3      H1             24.8984399862      -18.7010337343      -45.6006476142  TIP3      4806            0.0000000000
     28218      4906  TIP3      H2             25.6101843461      -17.7138073552      -44.7781988686  TIP3      4806            0.0000000000
     28219      4907  TIP3      OH2            15.7161344363      -10.3617310870      -42.8223237926  TIP3      4807            0.0000000000
     28220      4907  TIP3      H1             16.6784385639      -10.5913371685      -42.8063079858  TIP3      4807            0.0000000000
     28221      4907  TIP3      H2             15.5531822298      -10.3767440584      -43.7802526843  TIP3      4807            0.0000000000
     28222      4908  TIP3      OH2             9.6691996104      -16.2551902001      -43.2617840470  TIP3      4808            0.0000000000
     28223      4908  TIP3      H1             10.5852270865      -16.0103310626      -43.4758497843  TIP3      4808            0.0000000000
     28224      4908  TIP3      H2              9.2799705228      -16.3204280901      -44.1460881100  TIP3      4808            0.0000000000
     28225      4909  TIP3      OH2            27.1210168831      -20.0593266300      -42.4053927720  TIP3      4809            0.0000000000
     28226      4909  TIP3      H1             26.3424327370      -20.0448730791      -42.9852009808  TIP3      4809            0.0000000000
     28227      4909  TIP3      H2             26.8656747392      -19.3757279722      -41.7558657350  TIP3      4809            0.0000000000
     28228      4910  TIP3      OH2            24.1067066262      -22.9697616554      -44.4979790933  TIP3      4810            0.0000000000
     28229      4910  TIP3      H1             24.4948526127      -22.7686295904      -45.3834793468  TIP3      4810            0.0000000000
     28230      4910  TIP3      H2             24.1484250657      -23.9444247411      -44.4908277899  TIP3      4810            0.0000000000
     28231      4911  TIP3      OH2            24.0713186371      -25.8749362735      -44.7508822847  TIP3      4811            0.0000000000
     28232      4911  TIP3      H1             24.5820958167      -26.2093185743      -43.9937074589  TIP3      4811            0.0000000000
     28233      4911  TIP3      H2             23.1641690214      -26.1182318567      -44.4778353344  TIP3      4811            0.0000000000
     28234      4912  TIP3      OH2            26.8028486719      -26.6924782940      -42.7096014464  TIP3      4812            0.0000000000
     28235      4912  TIP3      H1             26.5639142261      -27.3452137192      -43.4005363836  TIP3      4812            0.0000000000
     28236      4912  TIP3      H2             26.9747022472      -25.8767455915      -43.2162088351  TIP3      4812            0.0000000000
     28237      4913  TIP3      OH2            11.2334223872      -26.0225790066      -44.1012698481  TIP3      4813            0.0000000000
     28238      4913  TIP3      H1             11.2662538539      -26.7881199413      -43.4988212401  TIP3      4813            0.0000000000
     28239      4913  TIP3      H2             11.3066455751      -25.2817166004      -43.4774608254  TIP3      4813            0.0000000000
     28240      4914  TIP3      OH2            18.2067608672      -11.0640908087      -43.1804709446  TIP3      4814            0.0000000000
     28241      4914  TIP3      H1             19.1665729662      -10.9443817278      -43.2045535317  TIP3      4814            0.0000000000
     28242      4914  TIP3      H2             18.0824570572      -11.6876244207      -43.9323649108  TIP3      4814            0.0000000000
     28243      4915  TIP3      OH2            11.7966409673      -12.4691588478      -43.9543819536  TIP3      4815            0.0000000000
     28244      4915  TIP3      H1             11.6131073412      -11.7033989142      -43.3914181320  TIP3      4815            0.0000000000
     28245      4915  TIP3      H2             11.6975507760      -13.1928624648      -43.3108330762  TIP3      4815            0.0000000000
     28246      4916  TIP3      OH2            29.3949961524      -19.8113287570      -43.7291057500  TIP3      4816            0.0000000000
     28247      4916  TIP3      H1             29.5662239558      -19.0538534697      -43.1503970066  TIP3      4816            0.0000000000
     28248      4916  TIP3      H2             28.4966428033      -20.0381851854      -43.3876120089  TIP3      4816            0.0000000000
     28249      4917  TIP3      OH2            29.0189450937      -22.8370657628      -42.8998023317  TIP3      4817            0.0000000000
     28250      4917  TIP3      H1             28.9719751870      -21.9621225864      -43.3241813448  TIP3      4817            0.0000000000
     28251      4917  TIP3      H2             28.3506615954      -23.3396173780      -43.3982521717  TIP3      4817            0.0000000000
     28252      4918  TIP3      OH2            28.1084942957      -16.8749147544      -42.7566311394  TIP3      4818            0.0000000000
     28253      4918  TIP3      H1             29.0181117653      -16.5431516527      -42.9017368153  TIP3      4818            0.0000000000
     28254      4918  TIP3      H2             27.8277387426      -16.9961404590      -43.6813951625  TIP3      4818            0.0000000000
     28255      4919  TIP3      OH2           -19.2125879615       -2.8387246044      -43.2308590178  TIP3      4819            0.0000000000
     28256      4919  TIP3      H1            -18.3725039875       -2.6172815843      -42.8124924255  TIP3      4819            0.0000000000
     28257      4919  TIP3      H2            -18.9698668697       -2.7674961883      -44.1716704446  TIP3      4819            0.0000000000
     28258      4920  TIP3      OH2           -12.1888456431        5.0035109264      -43.3403634165  TIP3      4820            0.0000000000
     28259      4920  TIP3      H1            -11.6164741069        5.4338671128      -42.6813073436  TIP3      4820            0.0000000000
     28260      4920  TIP3      H2            -11.5904989913        4.3227349587      -43.6944503839  TIP3      4820            0.0000000000
     28261      4921  TIP3      OH2           -16.2737909201        7.0005361198      -43.2196229923  TIP3      4821            0.0000000000
     28262      4921  TIP3      H1            -15.7615904290        6.1808302534      -43.3945165781  TIP3      4821            0.0000000000
     28263      4921  TIP3      H2            -16.4225020638        6.8944957682      -42.2682511979  TIP3      4821            0.0000000000
     28264      4922  TIP3      OH2           -14.8072775806       -0.9135538172      -43.9649756225  TIP3      4822            0.0000000000
     28265      4922  TIP3      H1            -15.0873182683       -1.2704139199      -44.8215691249  TIP3      4822            0.0000000000
     28266      4922  TIP3      H2            -14.0126120025       -0.4131503619      -44.1960183706  TIP3      4822            0.0000000000
     28267      4923  TIP3      OH2           -19.6335346327       -6.9850729412      -43.7171938994  TIP3      4823            0.0000000000
     28268      4923  TIP3      H1            -20.5674466379       -6.8088109328      -43.4862060160  TIP3      4823            0.0000000000
     28269      4923  TIP3      H2            -19.5340124994       -7.9349481860      -43.5395705428  TIP3      4823            0.0000000000
     28270      4924  TIP3      OH2           -22.5270214791       -6.2848739623      -43.7853365497  TIP3      4824            0.0000000000
     28271      4924  TIP3      H1            -22.8055856540       -6.5953122460      -42.8897863627  TIP3      4824            0.0000000000
     28272      4924  TIP3      H2            -23.2172407938       -5.6115592492      -43.9424888200  TIP3      4824            0.0000000000
     28273      4925  TIP3      OH2           -24.0028779562       -3.7246873215      -43.1359051177  TIP3      4825            0.0000000000
     28274      4925  TIP3      H1            -24.8066210965       -3.8234045277      -43.6799855246  TIP3      4825            0.0000000000
     28275      4925  TIP3      H2            -23.3860053304       -3.3625173927      -43.8005554721  TIP3      4825            0.0000000000
     28276      4926  TIP3      OH2           -16.8124793006       -5.3792430767      -42.7110473097  TIP3      4826            0.0000000000
     28277      4926  TIP3      H1            -17.7434259596       -5.5795647600      -42.4977357287  TIP3      4826            0.0000000000
     28278      4926  TIP3      H2            -16.3588594319       -5.6223756082      -41.8893027708  TIP3      4826            0.0000000000
     28279      4927  TIP3      OH2           -26.4136349378       -1.3633334179      -43.9145300159  TIP3      4827            0.0000000000
     28280      4927  TIP3      H1            -25.9179948354       -0.6383481827      -43.4979535955  TIP3      4827            0.0000000000
     28281      4927  TIP3      H2            -27.2630737362       -1.3466044639      -43.4510714842  TIP3      4827            0.0000000000
     28282      4928  TIP3      OH2           -14.8795607836        2.2673029989      -42.9465112281  TIP3      4828            0.0000000000
     28283      4928  TIP3      H1            -14.7131412824        2.4073429474      -42.0072480103  TIP3      4828            0.0000000000
     28284      4928  TIP3      H2            -15.8061739349        2.5466970206      -43.0150479471  TIP3      4828            0.0000000000
     28285      4929  TIP3      OH2           -11.1281997192        7.2697621984      -42.5326960278  TIP3      4829            0.0000000000
     28286      4929  TIP3      H1            -10.9093865102        7.6172367236      -43.4131120119  TIP3      4829            0.0000000000
     28287      4929  TIP3      H2            -12.0939048672        7.2555648201      -42.6397160101  TIP3      4829            0.0000000000
     28288      4930  TIP3      OH2           -20.7195280870        3.4987954499      -43.4883477152  TIP3      4830            0.0000000000
     28289      4930  TIP3      H1            -21.2547028673        3.3293709925      -44.2953060094  TIP3      4830            0.0000000000
     28290      4930  TIP3      H2            -21.4734980699        3.7791619374      -42.9135144544  TIP3      4830            0.0000000000
     28291      4931  TIP3      OH2           -23.0065434080        4.0163457862      -42.0183532712  TIP3      4831            0.0000000000
     28292      4931  TIP3      H1            -23.1475340234        3.2423410127      -41.4388869670  TIP3      4831            0.0000000000
     28293      4931  TIP3      H2            -23.0896046909        4.7355339242      -41.3687483888  TIP3      4831            0.0000000000
     28294      4932  TIP3      OH2           -25.8283900602        3.1736987500      -43.0658688125  TIP3      4832            0.0000000000
     28295      4932  TIP3      H1            -25.2413819742        3.8640757635      -42.7077227759  TIP3      4832            0.0000000000
     28296      4932  TIP3      H2            -25.2284231047        2.4126247316      -43.1419106468  TIP3      4832            0.0000000000
     28297      4933  TIP3      OH2           -27.0555175827       -4.2423206575      -43.7738142182  TIP3      4833            0.0000000000
     28298      4933  TIP3      H1            -27.0497092980       -3.2768058555      -43.8513585736  TIP3      4833            0.0000000000
     28299      4933  TIP3      H2            -28.0043703201       -4.4119963995      -43.6457664405  TIP3      4833            0.0000000000
     28300      4934  TIP3      OH2           -19.4924286405        5.8206803419      -44.2966211283  TIP3      4834            0.0000000000
     28301      4934  TIP3      H1            -19.8002632819        4.9902121566      -43.8947031269  TIP3      4834            0.0000000000
     28302      4934  TIP3      H2            -19.1429728591        5.4870567635      -45.1507466211  TIP3      4834            0.0000000000
     28303      4935  TIP3      OH2           -14.7702638329        4.9374804789      -44.4780233346  TIP3      4835            0.0000000000
     28304      4935  TIP3      H1            -14.0262754592        4.7281461323      -43.8618863975  TIP3      4835            0.0000000000
     28305      4935  TIP3      H2            -14.4398903985        5.7393815811      -44.9054369902  TIP3      4835            0.0000000000
     28306      4936  TIP3      OH2           -24.5028609296        1.1531340062      -44.3916130386  TIP3      4836            0.0000000000
     28307      4936  TIP3      H1            -24.2151852815        0.5825499840      -43.6531137412  TIP3      4836            0.0000000000
     28308      4936  TIP3      H2            -24.3387304011        0.5155143793      -45.1124542810  TIP3      4836            0.0000000000
     28309      4937  TIP3      OH2           -18.1579137082        2.2665065999      -42.9184841760  TIP3      4837            0.0000000000
     28310      4937  TIP3      H1            -19.1154769951        2.4388651092      -42.8177489509  TIP3      4837            0.0000000000
     28311      4937  TIP3      H2            -18.1426197461        1.5257955860      -43.5381316154  TIP3      4837            0.0000000000
     28312      4938  TIP3      OH2           -23.2757498560       -0.7703910726      -42.9074109828  TIP3      4838            0.0000000000
     28313      4938  TIP3      H1            -23.3754192544       -1.3932715123      -42.1700750816  TIP3      4838            0.0000000000
     28314      4938  TIP3      H2            -22.5926698143       -1.2230914457      -43.4419205585  TIP3      4838            0.0000000000
     28315      4939  TIP3      OH2           -21.6724288352       -2.6937784033      -44.1815964532  TIP3      4839            0.0000000000
     28316      4939  TIP3      H1            -21.5652812444       -3.4734267759      -44.7528688038  TIP3      4839            0.0000000000
     28317      4939  TIP3      H2            -20.8311932230       -2.7223092176      -43.6643609441  TIP3      4839            0.0000000000
     28318      4940  TIP3      OH2           -12.2377588530        0.1710341660      -44.8111403816  TIP3      4840            0.0000000000
     28319      4940  TIP3      H1            -12.5955879191        0.3195664732      -45.7046099656  TIP3      4840            0.0000000000
     28320      4940  TIP3      H2            -12.0606576825        1.1225527772      -44.5965785103  TIP3      4840            0.0000000000
     28321      4941  TIP3      OH2           -21.7254036699        8.3308576338      -42.8440247824  TIP3      4841            0.0000000000
     28322      4941  TIP3      H1            -20.7432387784        8.2555604947      -42.8798279075  TIP3      4841            0.0000000000
     28323      4941  TIP3      H2            -21.9494208088        8.3740179510      -43.7855841311  TIP3      4841            0.0000000000
     28324      4942  TIP3      OH2           -28.3894928849        2.4483278701      -43.6245394795  TIP3      4842            0.0000000000
     28325      4942  TIP3      H1            -27.4198966687        2.6450657556      -43.6006465523  TIP3      4842            0.0000000000
     28326      4942  TIP3      H2            -28.5694281297        2.6166191985      -44.5762133804  TIP3      4842            0.0000000000
     28327      4943  TIP3      OH2           -10.7410937403       -1.3649272539      -42.4678788956  TIP3      4843            0.0000000000
     28328      4943  TIP3      H1            -11.4830098149       -1.7305822258      -42.9706770702  TIP3      4843            0.0000000000
     28329      4943  TIP3      H2            -11.2002135393       -0.7091825098      -41.9114136715  TIP3      4843            0.0000000000
     28330      4944  TIP3      OH2           -13.3881467459       -3.8987427152      -44.3948423764  TIP3      4844            0.0000000000
     28331      4944  TIP3      H1            -12.9729231135       -3.7225368250      -45.2664465433  TIP3      4844            0.0000000000
     28332      4944  TIP3      H2            -13.3409904343       -4.8772813502      -44.3886067326  TIP3      4844            0.0000000000
     28333      4945  TIP3      OH2           -13.6037033020       -6.7338499213      -44.7602990178  TIP3      4845            0.0000000000
     28334      4945  TIP3      H1            -13.2272722773       -7.1787872009      -43.9789493396  TIP3      4845            0.0000000000
     28335      4945  TIP3      H2            -14.5442324095       -6.7964996370      -44.5549036987  TIP3      4845            0.0000000000
     28336      4946  TIP3      OH2           -10.8673262040       -7.3996397426      -42.5198386838  TIP3      4846            0.0000000000
     28337      4946  TIP3      H1            -11.0218648313       -8.2894301275      -42.9019410430  TIP3      4846            0.0000000000
     28338      4946  TIP3      H2            -10.4212680577       -7.0173595119      -43.2888836951  TIP3      4846            0.0000000000
     28339      4947  TIP3      OH2           -26.1444163916       -6.8778370677      -43.7198259828  TIP3      4847            0.0000000000
     28340      4947  TIP3      H1            -26.1969408415       -7.7260621117      -43.2399861135  TIP3      4847            0.0000000000
     28341      4947  TIP3      H2            -26.6747148015       -6.2482904263      -43.1922790090  TIP3      4847            0.0000000000
     28342      4948  TIP3      OH2           -19.0441380990        8.2506812969      -43.2041748656  TIP3      4848            0.0000000000
     28343      4948  TIP3      H1            -18.0908752467        8.3699684154      -43.3120286473  TIP3      4848            0.0000000000
     28344      4948  TIP3      H2            -19.1676694453        7.3394336820      -43.5611690170  TIP3      4848            0.0000000000
     28345      4949  TIP3      OH2           -26.0720139105        6.4293248813      -44.0304347677  TIP3      4849            0.0000000000
     28346      4949  TIP3      H1            -26.5517406817        7.2703063215      -44.1611239060  TIP3      4849            0.0000000000
     28347      4949  TIP3      H2            -26.0861570706        6.3658188933      -43.0584141356  TIP3      4849            0.0000000000
     28348      4950  TIP3      OH2            -0.1915585443       -2.4788690772      -43.3036495080  TIP3      4850            0.0000000000
     28349      4950  TIP3      H1              0.6914382420       -2.4988896798      -42.9103715254  TIP3      4850            0.0000000000
     28350      4950  TIP3      H2              0.0449444860       -2.6452073803      -44.2458489018  TIP3      4850            0.0000000000
     28351      4951  TIP3      OH2             6.4581911315        4.1871655064      -43.0375759611  TIP3      4851            0.0000000000
     28352      4951  TIP3      H1              6.7304718152        5.1209392878      -42.8745996175  TIP3      4851            0.0000000000
     28353      4951  TIP3      H2              7.2388214415        3.7541779971      -42.6514930080  TIP3      4851            0.0000000000
     28354      4952  TIP3      OH2             2.7497046311        6.9497852288      -43.1342012219  TIP3      4852            0.0000000000
     28355      4952  TIP3      H1              3.1135420526        6.1472872994      -43.5701487267  TIP3      4852            0.0000000000
     28356      4952  TIP3      H2              3.1488703152        6.8212304312      -42.2608266218  TIP3      4852            0.0000000000
     28357      4953  TIP3      OH2             3.6509385153       -1.0136220911      -44.0572049290  TIP3      4853            0.0000000000
     28358      4953  TIP3      H1              3.9181723230       -1.3753151502      -44.9216679254  TIP3      4853            0.0000000000
     28359      4953  TIP3      H2              3.4422976232       -0.1114188612      -44.3198525659  TIP3      4853            0.0000000000
     28360      4954  TIP3      OH2            -0.5686774958       -6.9720688525      -43.8337358429  TIP3      4854            0.0000000000
     28361      4954  TIP3      H1             -1.4443139112       -6.7111781000      -43.4992943952  TIP3      4854            0.0000000000
     28362      4954  TIP3      H2             -0.5445418551       -7.9205638261      -43.6461702787  TIP3      4854            0.0000000000
     28363      4955  TIP3      OH2            -3.8042450808       -6.1721122442      -43.9696224279  TIP3      4855            0.0000000000
     28364      4955  TIP3      H1             -3.8437105695       -6.5453613694      -43.0612239787  TIP3      4855            0.0000000000
     28365      4955  TIP3      H2             -4.2558014426       -5.3227986535      -43.8083395158  TIP3      4855            0.0000000000
     28366      4956  TIP3      OH2            -5.4530085371       -3.7391706387      -43.4037041240  TIP3      4856            0.0000000000
     28367      4956  TIP3      H1             -6.3465118938       -3.9108220992      -43.7529527587  TIP3      4856            0.0000000000
     28368      4956  TIP3      H2             -4.9784825052       -3.5712269780      -44.2394747735  TIP3      4856            0.0000000000
     28369      4957  TIP3      OH2             2.0969974209       -5.4325449176      -42.7332928434  TIP3      4857            0.0000000000
     28370      4957  TIP3      H1              1.1778559560       -5.5993108447      -42.4712860876  TIP3      4857            0.0000000000
     28371      4957  TIP3      H2              2.5840369018       -5.5652162349      -41.9053615497  TIP3      4857            0.0000000000
     28372      4958  TIP3      OH2            -8.1208701672       -1.1136694381      -43.7963900885  TIP3      4858            0.0000000000
     28373      4958  TIP3      H1             -7.6306892867       -0.8081958044      -43.0186853124  TIP3      4858            0.0000000000
     28374      4958  TIP3      H2             -9.0370717338       -1.1965998727      -43.4388205661  TIP3      4858            0.0000000000
     28375      4959  TIP3      OH2             3.6837329984        2.0997046712      -43.1165455658  TIP3      4859            0.0000000000
     28376      4959  TIP3      H1              4.0759220036        2.3727691592      -42.2697667881  TIP3      4859            0.0000000000
     28377      4959  TIP3      H2              2.7970927102        2.4883630034      -43.0439773001  TIP3      4859            0.0000000000
     28378      4960  TIP3      OH2             7.3793167979        6.7793334628      -42.7568585793  TIP3      4860            0.0000000000
     28379      4960  TIP3      H1              7.4660635293        7.4565083333      -43.4525896746  TIP3      4860            0.0000000000
     28380      4960  TIP3      H2              7.5559228832        7.2575802898      -41.9359073866  TIP3      4860            0.0000000000
     28381      4961  TIP3      OH2            -2.0219527352        3.3257730357      -43.4885109528  TIP3      4861            0.0000000000
     28382      4961  TIP3      H1             -2.6016139251        3.1128306460      -44.2612780856  TIP3      4861            0.0000000000
     28383      4961  TIP3      H2             -2.7413177706        3.6470185981      -42.8941830814  TIP3      4861            0.0000000000
     28384      4962  TIP3      OH2            -4.1270377255        3.8322132210      -41.9301494017  TIP3      4862            0.0000000000
     28385      4962  TIP3      H1             -4.3037589967        3.1669131819      -41.2329202660  TIP3      4862            0.0000000000
     28386      4962  TIP3      H2             -4.2604944816        4.6441640657      -41.4248176518  TIP3      4862            0.0000000000
     28387      4963  TIP3      OH2            -6.5626211415        3.3406475557      -42.9719678529  TIP3      4863            0.0000000000
     28388      4963  TIP3      H1             -5.7080626989        3.6628145810      -42.6285471609  TIP3      4863            0.0000000000
     28389      4963  TIP3      H2             -6.3011052517        2.4507283679      -43.2929729416  TIP3      4863            0.0000000000
     28390      4964  TIP3      OH2            -8.2944920360       -4.2960464259      -43.8686614973  TIP3      4864            0.0000000000
     28391      4964  TIP3      H1             -8.2257458542       -3.3903674623      -43.5298499360  TIP3      4864            0.0000000000
     28392      4964  TIP3      H2             -8.8211696042       -4.7013640638      -43.1606778529  TIP3      4864            0.0000000000
     28393      4965  TIP3      OH2            -1.0621581492        5.5653135853      -44.5075211536  TIP3      4865            0.0000000000
     28394      4965  TIP3      H1             -1.2503886934        4.7626123500      -43.9779364058  TIP3      4865            0.0000000000
     28395      4965  TIP3      H2             -0.7104010418        5.1844499404      -45.3481458207  TIP3      4865            0.0000000000
     28396      4966  TIP3      OH2             4.1723790780        4.9340399937      -44.3465100201  TIP3      4866            0.0000000000
     28397      4966  TIP3      H1              4.7355822886        4.5743755709      -43.6169476383  TIP3      4866            0.0000000000
     28398      4966  TIP3      H2              4.8129734046        5.5401856269      -44.7385635507  TIP3      4866            0.0000000000
     28399      4967  TIP3      OH2            -5.6041011596        1.1401228377      -44.2964271008  TIP3      4867            0.0000000000
     28400      4967  TIP3      H1             -5.8648754380        0.5411501123      -43.5785538261  TIP3      4867            0.0000000000
     28401      4967  TIP3      H2             -4.9916534719        0.5427448648      -44.7769166307  TIP3      4867            0.0000000000
     28402      4968  TIP3      OH2             0.7005391484        2.1829024645      -42.9194239279  TIP3      4868            0.0000000000
     28403      4968  TIP3      H1             -0.2544876060        2.3493476788      -42.9036084438  TIP3      4868            0.0000000000
     28404      4968  TIP3      H2              0.7351864291        1.2944667400      -43.2824546942  TIP3      4868            0.0000000000
     28405      4969  TIP3      OH2            -4.0892409573       -0.7147286878      -42.8545582431  TIP3      4869            0.0000000000
     28406      4969  TIP3      H1             -4.0519552874       -1.2381508320      -42.0423474464  TIP3      4869            0.0000000000
     28407      4969  TIP3      H2             -3.4359322052       -1.1915657818      -43.3907135449  TIP3      4869            0.0000000000
     28408      4970  TIP3      OH2            -2.6583407376       -2.5929130142      -44.2427325511  TIP3      4870            0.0000000000
     28409      4970  TIP3      H1             -2.4858296167       -3.5054136052      -44.5210601692  TIP3      4870            0.0000000000
     28410      4970  TIP3      H2             -1.7820363414       -2.3900314245      -43.8280349100  TIP3      4870            0.0000000000
     28411      4971  TIP3      OH2             6.7575239553        0.1438380923      -44.6040988173  TIP3      4871            0.0000000000
     28412      4971  TIP3      H1              6.0148894153       -0.2422020251      -45.0918675780  TIP3      4871            0.0000000000
     28413      4971  TIP3      H2              6.6184154360        1.1030348829      -44.8134102275  TIP3      4871            0.0000000000
     28414      4972  TIP3      OH2            -3.2836396624        8.3856209652      -42.8890958894  TIP3      4872            0.0000000000
     28415      4972  TIP3      H1             -2.3023700636        8.3209590311      -42.8329205894  TIP3      4872            0.0000000000
     28416      4972  TIP3      H2             -3.4052747472        8.4889425762      -43.8493323686  TIP3      4872            0.0000000000
     28417      4973  TIP3      OH2            -9.2523991327        2.7312442503      -43.1815416927  TIP3      4873            0.0000000000
     28418      4973  TIP3      H1             -8.3021120681        2.8841151064      -43.3542663812  TIP3      4873            0.0000000000
     28419      4973  TIP3      H2             -9.5625639792        2.5398083916      -44.0766318541  TIP3      4873            0.0000000000
     28420      4974  TIP3      OH2             8.1920087393       -1.5294725048      -42.6084218193  TIP3      4874            0.0000000000
     28421      4974  TIP3      H1              7.5767033989       -1.5395754125      -43.3633727710  TIP3      4874            0.0000000000
     28422      4974  TIP3      H2              7.7185232265       -0.9419758290      -41.9949807266  TIP3      4874            0.0000000000
     28423      4975  TIP3      OH2             5.6009295571       -3.8402100378      -44.0726893275  TIP3      4875            0.0000000000
     28424      4975  TIP3      H1              6.0358000165       -3.7417889460      -44.9513089384  TIP3      4875            0.0000000000
     28425      4975  TIP3      H2              5.6258522914       -4.8080813073      -44.0079536877  TIP3      4875            0.0000000000
     28426      4976  TIP3      OH2             5.3501775560       -6.6519301183      -44.7412839487  TIP3      4876            0.0000000000
     28427      4976  TIP3      H1              5.5649665697       -7.2199442067      -43.9834842359  TIP3      4876            0.0000000000
     28428      4976  TIP3      H2              4.3987566132       -6.5568106898      -44.6315941887  TIP3      4876            0.0000000000
     28429      4977  TIP3      OH2             7.9722553929       -7.5032517806      -42.5680872157  TIP3      4877            0.0000000000
     28430      4977  TIP3      H1              7.9481563325       -8.4191509889      -42.8940624744  TIP3      4877            0.0000000000
     28431      4977  TIP3      H2              8.3499622437       -7.1064887770      -43.3675993157  TIP3      4877            0.0000000000
     28432      4978  TIP3      OH2            -7.8744026585       -7.9257545361      -43.4076011481  TIP3      4878            0.0000000000
     28433      4978  TIP3      H1             -7.2088057647       -7.9818980961      -44.1182500862  TIP3      4878            0.0000000000
     28434      4978  TIP3      H2             -7.6197468459       -7.0969886589      -42.9942163338  TIP3      4878            0.0000000000
     28435      4979  TIP3      OH2            -0.6368275049        7.9486634015      -43.1849426287  TIP3      4879            0.0000000000
     28436      4979  TIP3      H1              0.3102209808        8.0537083140      -43.3352622498  TIP3      4879            0.0000000000
     28437      4979  TIP3      H2             -0.8466716960        7.2717313848      -43.8710894624  TIP3      4879            0.0000000000
     28438      4980  TIP3      OH2            -6.9976620290        6.6972519456      -44.1538115076  TIP3      4880            0.0000000000
     28439      4980  TIP3      H1             -7.3483579997        7.2254231774      -43.4277788283  TIP3      4880            0.0000000000
     28440      4980  TIP3      H2             -6.7918624418        5.8672480106      -43.7080874263  TIP3      4880            0.0000000000
     28441      4981  TIP3      OH2            18.4735267990       -2.5857500647      -43.1807479203  TIP3      4881            0.0000000000
     28442      4981  TIP3      H1             19.3169438971       -2.3996376958      -42.7548844271  TIP3      4881            0.0000000000
     28443      4981  TIP3      H2             18.7721113199       -2.7779046917      -44.0890789507  TIP3      4881            0.0000000000
     28444      4982  TIP3      OH2            25.7801263588        4.6647060167      -43.3608639548  TIP3      4882            0.0000000000
     28445      4982  TIP3      H1             26.0664903173        5.5764973199      -43.1217263970  TIP3      4882            0.0000000000
     28446      4982  TIP3      H2             26.4348924895        4.2157937825      -42.8158630009  TIP3      4882            0.0000000000
     28447      4983  TIP3      OH2            21.0574334709        7.0629737558      -43.0168085650  TIP3      4883            0.0000000000
     28448      4983  TIP3      H1             21.6312351575        6.3345510525      -43.3517118914  TIP3      4883            0.0000000000
     28449      4983  TIP3      H2             21.3978970237        7.1274444108      -42.1094613279  TIP3      4883            0.0000000000
     28450      4984  TIP3      OH2            22.9846395739       -0.6946400279      -44.0107213634  TIP3      4884            0.0000000000
     28451      4984  TIP3      H1             22.8039290224       -1.1720268924      -44.8447019439  TIP3      4884            0.0000000000
     28452      4984  TIP3      H2             23.8392774323       -0.2720072535      -44.2129271728  TIP3      4884            0.0000000000
     28453      4985  TIP3      OH2            18.1936518965       -7.1391835899      -43.7029548594  TIP3      4885            0.0000000000
     28454      4985  TIP3      H1             17.3087530032       -6.8044242328      -43.4821480116  TIP3      4885            0.0000000000
     28455      4985  TIP3      H2             18.0588382919       -8.0960311553      -43.6763069120  TIP3      4885            0.0000000000
     28456      4986  TIP3      OH2            15.0383906845       -6.2343635304      -43.8213662540  TIP3      4886            0.0000000000
     28457      4986  TIP3      H1             14.9835937227       -6.5312833615      -42.8904420982  TIP3      4886            0.0000000000
     28458      4986  TIP3      H2             14.6516335005       -5.3454422795      -43.7356191545  TIP3      4886            0.0000000000
     28459      4987  TIP3      OH2            13.6505398310       -3.9390337128      -43.1006624523  TIP3      4887            0.0000000000
     28460      4987  TIP3      H1             12.8810459325       -3.8805077954      -43.6938899837  TIP3      4887            0.0000000000
     28461      4987  TIP3      H2             14.3066249125       -3.4542473214      -43.6378266865  TIP3      4887            0.0000000000
     28462      4988  TIP3      OH2            20.7731103625       -5.8166610054      -42.8362935149  TIP3      4888            0.0000000000
     28463      4988  TIP3      H1             19.8598179706       -6.1651641814      -42.7936725703  TIP3      4888            0.0000000000
     28464      4988  TIP3      H2             21.0379574733       -5.9460209875      -41.8987423004  TIP3      4888            0.0000000000
     28465      4989  TIP3      OH2            11.0854987665       -1.3506777989      -43.8357980644  TIP3      4889            0.0000000000
     28466      4989  TIP3      H1             11.3223132360       -0.7159525398      -43.1412212815  TIP3      4889            0.0000000000
     28467      4989  TIP3      H2             10.1189908120       -1.3884370304      -43.6966015891  TIP3      4889            0.0000000000
     28468      4990  TIP3      OH2            22.7497582393        2.3501621483      -42.9730747651  TIP3      4890            0.0000000000
     28469      4990  TIP3      H1             22.8751411705        2.4301975702      -42.0164983744  TIP3      4890            0.0000000000
     28470      4990  TIP3      H2             21.8301569540        2.6641003903      -43.0600260677  TIP3      4890            0.0000000000
     28471      4991  TIP3      OH2            26.8303265295        6.9645474557      -42.5035253576  TIP3      4891            0.0000000000
     28472      4991  TIP3      H1             26.9101973868        7.7357398207      -43.0839578233  TIP3      4891            0.0000000000
     28473      4991  TIP3      H2             26.3702016969        7.2983149249      -41.7127253308  TIP3      4891            0.0000000000
     28474      4992  TIP3      OH2            16.8702243908        3.1631011951      -43.6454592516  TIP3      4892            0.0000000000
     28475      4992  TIP3      H1             16.2737608587        2.9658799178      -44.4081071839  TIP3      4892            0.0000000000
     28476      4992  TIP3      H2             16.1710068784        3.4689708115      -43.0178429323  TIP3      4892            0.0000000000
     28477      4993  TIP3      OH2            14.8840495167        3.9105292253      -41.9404352531  TIP3      4893            0.0000000000
     28478      4993  TIP3      H1             14.6815528747        3.1834213248      -41.3085702470  TIP3      4893            0.0000000000
     28479      4993  TIP3      H2             15.1086993444        4.6324333358      -41.3290265735  TIP3      4893            0.0000000000
     28480      4994  TIP3      OH2            12.3576063913        3.2666976123      -43.0888325255  TIP3      4894            0.0000000000
     28481      4994  TIP3      H1             13.1476050669        3.6736610454      -42.6850006972  TIP3      4894            0.0000000000
     28482      4994  TIP3      H2             12.6268705744        2.3313472896      -43.1348889668  TIP3      4894            0.0000000000
     28483      4995  TIP3      OH2            10.4415636779       -4.4031521593      -43.7042934686  TIP3      4895            0.0000000000
     28484      4995  TIP3      H1             10.6845092041       -3.4912779677      -43.4840996656  TIP3      4895            0.0000000000
     28485      4995  TIP3      H2              9.9202018808       -4.6442556727      -42.9229042763  TIP3      4895            0.0000000000
     28486      4996  TIP3      OH2            17.9075929334        5.5455897544      -44.3913132714  TIP3      4896            0.0000000000
     28487      4996  TIP3      H1             17.5748017776        4.7146712989      -44.0035667178  TIP3      4896            0.0000000000
     28488      4996  TIP3      H2             18.2070627341        5.2231993395      -45.2764250487  TIP3      4896            0.0000000000
     28489      4997  TIP3      OH2            22.9848907569        5.2228950000      -44.5546119304  TIP3      4897            0.0000000000
     28490      4997  TIP3      H1             23.8045583269        4.9322188323      -44.1246607399  TIP3      4897            0.0000000000
     28491      4997  TIP3      H2             23.3254129164        5.8525470036      -45.2057432997  TIP3      4897            0.0000000000
     28492      4998  TIP3      OH2            13.3418459082        1.0058501185      -44.4038252126  TIP3      4898            0.0000000000
     28493      4998  TIP3      H1             13.0704155376        0.3789252079      -43.7187343252  TIP3      4898            0.0000000000
     28494      4998  TIP3      H2             14.1807542788        0.5631840612      -44.6838737572  TIP3      4898            0.0000000000
     28495      4999  TIP3      OH2            19.5813605029        2.4121745709      -43.0166211546  TIP3      4899            0.0000000000
     28496      4999  TIP3      H1             18.6152701603        2.4162885014      -42.9257645644  TIP3      4899            0.0000000000
     28497      4999  TIP3      H2             19.7443000205        1.6230170809      -43.5490803443  TIP3      4899            0.0000000000
     28498      5000  TIP3      OH2            14.7861536459       -0.6932249219      -42.8025676528  TIP3      4900            0.0000000000
     28499      5000  TIP3      H1             14.6258048729       -1.4254604531      -42.1953448834  TIP3      4900            0.0000000000
     28500      5000  TIP3      H2             15.3921342882       -1.1104856558      -43.4399500711  TIP3      4900            0.0000000000
     28501      5001  TIP3      OH2            16.0777975491       -2.7360352972      -44.1780240661  TIP3      4901            0.0000000000
     28502      5001  TIP3      H1             16.4308142039       -3.4758297853      -44.6971140851  TIP3      4901            0.0000000000
     28503      5001  TIP3      H2             16.8805466759       -2.5060985324      -43.6516830902  TIP3      4901            0.0000000000
     28504      5002  TIP3      OH2            25.3356234761        0.3462954388      -44.7490446357  TIP3      4902            0.0000000000
     28505      5002  TIP3      H1             24.8880968028        0.2491788211      -45.6101161696  TIP3      4902            0.0000000000
     28506      5002  TIP3      H2             25.4743680116        1.3265509840      -44.7562365427  TIP3      4902            0.0000000000
     28507      5003  TIP3      OH2            15.8782799822        8.3283387894      -42.8685637345  TIP3      4903            0.0000000000
     28508      5003  TIP3      H1             16.8444295952        8.4544661273      -42.7853271882  TIP3      4903            0.0000000000
     28509      5003  TIP3      H2             15.7834990385        8.3677963435      -43.8396926356  TIP3      4903            0.0000000000
     28510      5004  TIP3      OH2             9.5911017348        2.6197714019      -43.2129375367  TIP3      4904            0.0000000000
     28511      5004  TIP3      H1             10.4943269867        2.9217358661      -43.4042576570  TIP3      4904            0.0000000000
     28512      5004  TIP3      H2              9.2525056825        2.4410623342      -44.1028769535  TIP3      4904            0.0000000000
     28513      5005  TIP3      OH2            27.0150023207       -1.1821378753      -42.3871084338  TIP3      4905            0.0000000000
     28514      5005  TIP3      H1             26.1662308860       -1.5406360094      -42.6748067965  TIP3      4905            0.0000000000
     28515      5005  TIP3      H2             26.7444646820       -0.4023223397      -41.8637542567  TIP3      4905            0.0000000000
     28516      5006  TIP3      OH2            24.0916206166       -4.0618644940      -44.6727681485  TIP3      4906            0.0000000000
     28517      5006  TIP3      H1             24.0783129105       -3.9597917709      -45.6595738372  TIP3      4906            0.0000000000
     28518      5006  TIP3      H2             24.3026460616       -5.0177798392      -44.6076940517  TIP3      4906            0.0000000000
     28519      5007  TIP3      OH2            24.1067411790       -6.8805238108      -44.7732031161  TIP3      4907            0.0000000000
     28520      5007  TIP3      H1             24.3499002072       -7.1530514184      -43.8730758535  TIP3      4907            0.0000000000
     28521      5007  TIP3      H2             23.1427846536       -6.8956043372      -44.6976898561  TIP3      4907            0.0000000000
     28522      5008  TIP3      OH2            27.0664469548       -7.1737011735      -42.7137825212  TIP3      4908            0.0000000000
     28523      5008  TIP3      H1             26.9379673380       -8.1051109304      -43.0051608176  TIP3      4908            0.0000000000
     28524      5008  TIP3      H2             27.1749263744       -6.7722861963      -43.5899949287  TIP3      4908            0.0000000000
     28525      5009  TIP3      OH2            11.0141864837       -8.0707793215      -43.4006213941  TIP3      4909            0.0000000000
     28526      5009  TIP3      H1             11.5678343454       -8.0733701774      -44.2055202507  TIP3      4909            0.0000000000
     28527      5009  TIP3      H2             11.0587813491       -7.1359440054      -43.1677008518  TIP3      4909            0.0000000000
     28528      5010  TIP3      OH2            18.5621635643        8.3233898608      -43.1624751044  TIP3      4910            0.0000000000
     28529      5010  TIP3      H1             19.4935293638        8.1666047787      -42.9194455001  TIP3      4910            0.0000000000
     28530      5010  TIP3      H2             18.3840312800        7.5213225276      -43.6836323842  TIP3      4910            0.0000000000
     28531      5011  TIP3      OH2            11.8933479534        6.4728136483      -44.0986306364  TIP3      4911            0.0000000000
     28532      5011  TIP3      H1             11.4072923373        7.1462284536      -43.5975016405  TIP3      4911            0.0000000000
     28533      5011  TIP3      H2             12.3549401443        6.0349579434      -43.3709306826  TIP3      4911            0.0000000000
     28534      5012  TIP3      OH2            29.3577611322       -1.0734619888      -43.6441718778  TIP3      4912            0.0000000000
     28535      5012  TIP3      H1             29.5690645395       -0.3497639357      -43.0385319548  TIP3      4912            0.0000000000
     28536      5012  TIP3      H2             28.4047495805       -1.1552160469      -43.4124795201  TIP3      4912            0.0000000000
     28537      5013  TIP3      OH2            29.1624702551       -4.0156137136      -43.2849994110  TIP3      4913            0.0000000000
     28538      5013  TIP3      H1             29.2143583761       -3.0450738324      -43.2052118748  TIP3      4913            0.0000000000
     28539      5013  TIP3      H2             28.3746116194       -4.1199669207      -43.8310042928  TIP3      4913            0.0000000000
     28540      5014  TIP3      OH2            28.0699914725        2.0568684504      -42.7136895170  TIP3      4914            0.0000000000
     28541      5014  TIP3      H1             29.0395251014        2.1051028565      -42.8722735058  TIP3      4914            0.0000000000
     28542      5014  TIP3      H2             27.7542974880        2.0934225461      -43.6325124900  TIP3      4914            0.0000000000
     28543      5015  TIP3      OH2           -19.1402580860       16.2924145522      -43.2866116763  TIP3      4915            0.0000000000
     28544      5015  TIP3      H1            -18.2668559576       16.5514962018      -42.9644058680  TIP3      4915            0.0000000000
     28545      5015  TIP3      H2            -18.9337363627       16.0649164933      -44.2125180750  TIP3      4915            0.0000000000
     28546      5016  TIP3      OH2           -12.3888759442       23.3914444850      -43.1874456598  TIP3      4916            0.0000000000
     28547      5016  TIP3      H1            -12.4322350668       24.3357390394      -42.9351570085  TIP3      4916            0.0000000000
     28548      5016  TIP3      H2            -11.5415340545       23.1639870164      -42.7776968032  TIP3      4916            0.0000000000
     28549      5017  TIP3      OH2           -16.3842590261       25.6233093060      -43.1526745662  TIP3      4917            0.0000000000
     28550      5017  TIP3      H1            -16.0378079692       24.7681044201      -43.4915472703  TIP3      4917            0.0000000000
     28551      5017  TIP3      H2            -15.8225359541       25.7428835653      -42.3686961559  TIP3      4917            0.0000000000
     28552      5018  TIP3      OH2           -14.8205495313       18.0534371276      -44.1545376182  TIP3      4918            0.0000000000
     28553      5018  TIP3      H1            -14.9375476804       17.3658613204      -44.8346428253  TIP3      4918            0.0000000000
     28554      5018  TIP3      H2            -14.5247390231       18.8318586951      -44.6576536622  TIP3      4918            0.0000000000
     28555      5019  TIP3      OH2           -19.4369483641       11.8216592640      -43.6032676552  TIP3      4919            0.0000000000
     28556      5019  TIP3      H1            -20.3462091873       12.1267030688      -43.4078429851  TIP3      4919            0.0000000000
     28557      5019  TIP3      H2            -19.5483511660       10.8600708691      -43.6085148873  TIP3      4919            0.0000000000
     28558      5020  TIP3      OH2           -22.4445003188       12.5161406478      -43.9101475288  TIP3      4920            0.0000000000
     28559      5020  TIP3      H1            -22.8224648446       12.1505780366      -43.0815854277  TIP3      4920            0.0000000000
     28560      5020  TIP3      H2            -22.9903402430       13.3106499317      -44.0093678798  TIP3      4920            0.0000000000
     28561      5021  TIP3      OH2           -24.3481865961       15.2427246070      -43.2103742443  TIP3      4921            0.0000000000
     28562      5021  TIP3      H1            -25.1428911378       14.8457773117      -43.6381012098  TIP3      4921            0.0000000000
     28563      5021  TIP3      H2            -23.8104125723       15.4231842410      -44.0048881430  TIP3      4921            0.0000000000
     28564      5022  TIP3      OH2           -16.7258818920       13.1989229745      -42.6473991377  TIP3      4922            0.0000000000
     28565      5022  TIP3      H1            -17.6459710692       12.9133395608      -42.7592224063  TIP3      4922            0.0000000000
     28566      5022  TIP3      H2            -16.5728060965       12.9471391727      -41.7124798798  TIP3      4922            0.0000000000
     28567      5023  TIP3      OH2           -28.1069422653       17.4160715508      -43.5326003102  TIP3      4923            0.0000000000
     28568      5023  TIP3      H1            -27.2602061117       17.4320676915      -43.0729549935  TIP3      4923            0.0000000000
     28569      5023  TIP3      H2            -28.6581592606       17.9402740037      -42.9326335985  TIP3      4923            0.0000000000
     28570      5024  TIP3      OH2           -15.0349034557       21.0922562666      -42.9760594457  TIP3      4924            0.0000000000
     28571      5024  TIP3      H1            -14.8133121142       21.5135230359      -42.1314864798  TIP3      4924            0.0000000000
     28572      5024  TIP3      H2            -16.0082287626       21.0186902810      -42.8840890002  TIP3      4924            0.0000000000
     28573      5025  TIP3      OH2           -11.4623454608       25.8956098548      -42.5490968961  TIP3      4925            0.0000000000
     28574      5025  TIP3      H1            -10.8870627237       25.6164785470      -43.2821499241  TIP3      4925            0.0000000000
     28575      5025  TIP3      H2            -11.4230768841       26.8695601612      -42.7320847511  TIP3      4925            0.0000000000
     28576      5026  TIP3      OH2           -20.7634225318       22.0105726346      -43.3428715300  TIP3      4926            0.0000000000
     28577      5026  TIP3      H1            -21.3421325990       21.8617877140      -44.1224312656  TIP3      4926            0.0000000000
     28578      5026  TIP3      H2            -21.4669173633       22.3618845605      -42.7335613679  TIP3      4926            0.0000000000
     28579      5027  TIP3      OH2           -22.7949473682       22.8016941016      -41.7844401889  TIP3      4927            0.0000000000
     28580      5027  TIP3      H1            -23.1210636768       21.9467923393      -41.4341964967  TIP3      4927            0.0000000000
     28581      5027  TIP3      H2            -22.5730611156       23.2417821953      -40.9423163688  TIP3      4927            0.0000000000
     28582      5028  TIP3      OH2           -25.5063387696       22.2933352213      -42.6718619723  TIP3      4928            0.0000000000
     28583      5028  TIP3      H1            -24.8595192256       22.9714466291      -42.9373083105  TIP3      4928            0.0000000000
     28584      5028  TIP3      H2            -25.0318704952       21.4528570203      -42.8047604161  TIP3      4928            0.0000000000
     28585      5029  TIP3      OH2           -26.8802355248       14.5499522722      -43.7684618146  TIP3      4929            0.0000000000
     28586      5029  TIP3      H1            -27.3170254319       15.4094026991      -43.7278763538  TIP3      4929            0.0000000000
     28587      5029  TIP3      H2            -26.9359798921       14.2683584450      -42.8231866908  TIP3      4929            0.0000000000
     28588      5030  TIP3      OH2           -19.7703150233       24.4912794914      -44.2431229564  TIP3      4930            0.0000000000
     28589      5030  TIP3      H1            -20.1187491265       23.6203836105      -43.9817751554  TIP3      4930            0.0000000000
     28590      5030  TIP3      H2            -19.4702913300       24.3525861838      -45.1751658133  TIP3      4930            0.0000000000
     28591      5031  TIP3      OH2           -14.8281554107       23.9328748971      -44.5477385947  TIP3      4931            0.0000000000
     28592      5031  TIP3      H1            -14.0449924807       23.5444229918      -44.1156319985  TIP3      4931            0.0000000000
     28593      5031  TIP3      H2            -14.5511674730       24.8595746588      -44.6434633492  TIP3      4931            0.0000000000
     28594      5032  TIP3      OH2           -24.6270054011       20.1242532031      -44.2158664178  TIP3      4932            0.0000000000
     28595      5032  TIP3      H1            -24.4820213309       19.4851919875      -43.4940209483  TIP3      4932            0.0000000000
     28596      5032  TIP3      H2            -23.9260532241       19.8431554674      -44.8286957830  TIP3      4932            0.0000000000
     28597      5033  TIP3      OH2           -17.9214086438       20.9402330619      -42.8718819863  TIP3      4933            0.0000000000
     28598      5033  TIP3      H1            -18.8508694882       21.2202368177      -42.7447949174  TIP3      4933            0.0000000000
     28599      5033  TIP3      H2            -18.0639234268       20.3241469248      -43.6055205459  TIP3      4933            0.0000000000
     28600      5034  TIP3      OH2           -23.2037998471       18.0924917307      -42.9701266324  TIP3      4934            0.0000000000
     28601      5034  TIP3      H1            -23.5097333508       17.4865455781      -42.2837507699  TIP3      4934            0.0000000000
     28602      5034  TIP3      H2            -22.5779015638       17.5070140678      -43.4418900108  TIP3      4934            0.0000000000
     28603      5035  TIP3      OH2           -21.7051403971       16.1309471891      -44.0931325000  TIP3      4935            0.0000000000
     28604      5035  TIP3      H1            -21.5000348464       15.5588016219      -44.8501508784  TIP3      4935            0.0000000000
     28605      5035  TIP3      H2            -20.8231983914       16.2839883760      -43.6868335506  TIP3      4935            0.0000000000
     28606      5036  TIP3      OH2           -12.1026114480       19.0035330070      -44.9814112363  TIP3      4936            0.0000000000
     28607      5036  TIP3      H1            -12.4313049750       18.9934742491      -45.9011251554  TIP3      4936            0.0000000000
     28608      5036  TIP3      H2            -12.1496689777       19.9857685237      -44.8818262024  TIP3      4936            0.0000000000
     28609      5037  TIP3      OH2           -21.7334202026       27.1643055599      -42.7085682429  TIP3      4937            0.0000000000
     28610      5037  TIP3      H1            -20.7588291334       27.1438343382      -42.7949119989  TIP3      4937            0.0000000000
     28611      5037  TIP3      H2            -22.0006319354       27.2140312229      -43.6380752542  TIP3      4937            0.0000000000
     28612      5038  TIP3      OH2           -28.3677615727       21.2958982438      -43.4058597770  TIP3      4938            0.0000000000
     28613      5038  TIP3      H1            -27.4188288118       21.4901772514      -43.3945756528  TIP3      4938            0.0000000000
     28614      5038  TIP3      H2            -28.5449208792       21.1924298233      -44.3596154801  TIP3      4938            0.0000000000
     28615      5039  TIP3      OH2           -10.8199328201       17.6069752087      -42.1814163007  TIP3      4939            0.0000000000
     28616      5039  TIP3      H1            -11.5163426795       17.1787974618      -42.6986625912  TIP3      4939            0.0000000000
     28617      5039  TIP3      H2            -11.3357978598       18.1165812648      -41.5243133273  TIP3      4939            0.0000000000
     28618      5040  TIP3      OH2           -13.2736585828       15.0619218680      -44.3040314279  TIP3      4940            0.0000000000
     28619      5040  TIP3      H1            -12.9366533271       15.2300737978      -45.2153077712  TIP3      4940            0.0000000000
     28620      5040  TIP3      H2            -13.2018353960       14.0870720591      -44.2834813923  TIP3      4940            0.0000000000
     28621      5041  TIP3      OH2           -13.5515960468       12.2144780657      -44.6703311299  TIP3      4941            0.0000000000
     28622      5041  TIP3      H1            -13.1555202720       11.7060919356      -43.9394512052  TIP3      4941            0.0000000000
     28623      5041  TIP3      H2            -14.4876307381       11.9853474827      -44.5780871344  TIP3      4941            0.0000000000
     28624      5042  TIP3      OH2           -10.9827775253       11.7275547416      -42.8555862248  TIP3      4942            0.0000000000
     28625      5042  TIP3      H1            -10.9465942078       10.7621531142      -42.9975503348  TIP3      4942            0.0000000000
     28626      5042  TIP3      H2            -10.7784989365       12.0377572976      -43.7629148379  TIP3      4942            0.0000000000
     28627      5043  TIP3      OH2           -25.8835916608       11.4988880187      -43.4580571083  TIP3      4943            0.0000000000
     28628      5043  TIP3      H1            -26.1793768734       10.5811341484      -43.5859823868  TIP3      4943            0.0000000000
     28629      5043  TIP3      H2            -25.3437979169       11.4476164316      -42.6609769673  TIP3      4943            0.0000000000
     28630      5044  TIP3      OH2           -18.9519630468       26.7600494024      -42.8303034292  TIP3      4944            0.0000000000
     28631      5044  TIP3      H1            -17.9846745513       26.6692174302      -42.7645385124  TIP3      4944            0.0000000000
     28632      5044  TIP3      H2            -19.1651408637       26.0283230192      -43.4531150749  TIP3      4944            0.0000000000
     28633      5045  TIP3      OH2           -25.7703075634       25.1365406344      -44.4296432050  TIP3      4945            0.0000000000
     28634      5045  TIP3      H1            -26.6099782327       25.5210780574      -44.1262362060  TIP3      4945            0.0000000000
     28635      5045  TIP3      H2            -25.1433899787       25.7434233426      -44.0214004449  TIP3      4945            0.0000000000
     28636      5046  TIP3      OH2            -0.3041928544       16.0687508230      -43.3378951369  TIP3      4946            0.0000000000
     28637      5046  TIP3      H1              0.5276525069       16.4129621276      -42.9805836500  TIP3      4946            0.0000000000
     28638      5046  TIP3      H2             -0.0630750624       15.9662727705      -44.2805127418  TIP3      4946            0.0000000000
     28639      5047  TIP3      OH2             6.4448478418       23.4048004922      -43.0678649088  TIP3      4947            0.0000000000
     28640      5047  TIP3      H1              6.5137021922       24.3770289898      -42.9107306968  TIP3      4947            0.0000000000
     28641      5047  TIP3      H2              7.2420405699       23.1308949290      -42.5839189563  TIP3      4947            0.0000000000
     28642      5048  TIP3      OH2             2.5399127521       25.7045881293      -43.0721572840  TIP3      4948            0.0000000000
     28643      5048  TIP3      H1              3.1166510478       24.9102304854      -43.0879854363  TIP3      4948            0.0000000000
     28644      5048  TIP3      H2              2.4451986876       25.8970598929      -42.1291582121  TIP3      4948            0.0000000000
     28645      5049  TIP3      OH2             3.7475266998       17.8047706666      -44.0487006851  TIP3      4949            0.0000000000
     28646      5049  TIP3      H1              3.6769733837       17.3835630997      -44.9193340977  TIP3      4949            0.0000000000
     28647      5049  TIP3      H2              4.6325970441       18.1862730256      -44.1206907185  TIP3      4949            0.0000000000
     28648      5050  TIP3      OH2            -0.4893622392       11.7756795971      -43.6645810297  TIP3      4950            0.0000000000
     28649      5050  TIP3      H1             -1.3076483871       12.1379346960      -43.3046687369  TIP3      4950            0.0000000000
     28650      5050  TIP3      H2             -0.7049192736       10.8389989371      -43.8011233209  TIP3      4950            0.0000000000
     28651      5051  TIP3      OH2            -3.7387916689       12.8276406540      -43.9417073078  TIP3      4951            0.0000000000
     28652      5051  TIP3      H1             -3.7735069121       12.5918033690      -42.9917694602  TIP3      4951            0.0000000000
     28653      5051  TIP3      H2             -4.1922535198       13.6854088426      -43.9141312283  TIP3      4951            0.0000000000
     28654      5052  TIP3      OH2            -5.1750388540       15.3869051164      -43.2803062221  TIP3      4952            0.0000000000
     28655      5052  TIP3      H1             -5.9599872507       15.2936623224      -43.8490710534  TIP3      4952            0.0000000000
     28656      5052  TIP3      H2             -4.4850233249       15.6925531736      -43.9043406036  TIP3      4952            0.0000000000
     28657      5053  TIP3      OH2             2.1028958613       13.4358611281      -42.7227689145  TIP3      4953            0.0000000000
     28658      5053  TIP3      H1              1.1982662898       13.1848232411      -42.4723665403  TIP3      4953            0.0000000000
     28659      5053  TIP3      H2              2.6105934706       13.2632491323      -41.9170298394  TIP3      4953            0.0000000000
     28660      5054  TIP3      OH2            -7.9014193773       17.5167004607      -43.8334644518  TIP3      4954            0.0000000000
     28661      5054  TIP3      H1             -7.7024201426       17.8996318446      -42.9708719882  TIP3      4954            0.0000000000
     28662      5054  TIP3      H2             -8.8786493228       17.5361436536      -43.8386029075  TIP3      4954            0.0000000000
     28663      5055  TIP3      OH2             3.7639885395       21.1516264853      -42.9663079811  TIP3      4955            0.0000000000
     28664      5055  TIP3      H1              3.8404442378       21.7663234910      -42.2128531758  TIP3      4955            0.0000000000
     28665      5055  TIP3      H2              2.7916220374       21.0851986089      -42.9974513503  TIP3      4955            0.0000000000
     28666      5056  TIP3      OH2             7.4486356922       25.8776171366      -42.6265562902  TIP3      4956            0.0000000000
     28667      5056  TIP3      H1              8.0827010895       25.6422807465      -43.3341136126  TIP3      4956            0.0000000000
     28668      5056  TIP3      H2              7.4314312095       26.8378195334      -42.8183293081  TIP3      4956            0.0000000000
     28669      5057  TIP3      OH2            -1.8846279008       21.6671776173      -43.3567411186  TIP3      4957            0.0000000000
     28670      5057  TIP3      H1             -2.5389736815       21.6170998733      -44.0902737711  TIP3      4957            0.0000000000
     28671      5057  TIP3      H2             -2.5105298979       21.7271796036      -42.5965574405  TIP3      4957            0.0000000000
     28672      5058  TIP3      OH2            -3.9479064897       22.5111142871      -41.7342516440  TIP3      4958            0.0000000000
     28673      5058  TIP3      H1             -4.1338301692       22.0387549228      -40.8945784192  TIP3      4958            0.0000000000
     28674      5058  TIP3      H2             -3.7327969009       23.3848630625      -41.3809505116  TIP3      4958            0.0000000000
     28675      5059  TIP3      OH2            -6.5581390126       22.2798909723      -43.0170679464  TIP3      4959            0.0000000000
     28676      5059  TIP3      H1             -5.7906029021       22.6494449579      -42.5434728837  TIP3      4959            0.0000000000
     28677      5059  TIP3      H2             -6.2361314415       21.3730995557      -43.1656801126  TIP3      4959            0.0000000000
     28678      5060  TIP3      OH2            -8.1840140434       14.6466248659      -43.5541158222  TIP3      4960            0.0000000000
     28679      5060  TIP3      H1             -8.1564426995       15.6103030323      -43.4574022322  TIP3      4960            0.0000000000
     28680      5060  TIP3      H2             -9.1271120160       14.4679548042      -43.6507177749  TIP3      4960            0.0000000000
     28681      5061  TIP3      OH2            -0.9428241910       24.0942259658      -44.2509356881  TIP3      4961            0.0000000000
     28682      5061  TIP3      H1             -1.4276264012       23.2784405888      -44.0331595803  TIP3      4961            0.0000000000
     28683      5061  TIP3      H2             -0.7437187738       24.0246131968      -45.2120110505  TIP3      4961            0.0000000000
     28684      5062  TIP3      OH2             4.0672902060       23.7751134306      -44.5334768296  TIP3      4962            0.0000000000
     28685      5062  TIP3      H1              4.7010446090       23.4172681133      -43.8889720533  TIP3      4962            0.0000000000
     28686      5062  TIP3      H2              4.6732867348       24.1273185733      -45.1981371071  TIP3      4962            0.0000000000
     28687      5063  TIP3      OH2            -5.7057486509       20.0669503457      -44.2699964173  TIP3      4963            0.0000000000
     28688      5063  TIP3      H1             -6.0473941609       19.4899320700      -43.5665509388  TIP3      4963            0.0000000000
     28689      5063  TIP3      H2             -4.9168035098       19.5310187463      -44.5101505208  TIP3      4963            0.0000000000
     28690      5064  TIP3      OH2             0.7691644265       20.9044640616      -42.8884240174  TIP3      4964            0.0000000000
     28691      5064  TIP3      H1             -0.1899264506       21.1256331558      -42.9225162493  TIP3      4964            0.0000000000
     28692      5064  TIP3      H2              0.8208962579       20.2470943128      -43.5931664120  TIP3      4964            0.0000000000
     28693      5065  TIP3      OH2            -4.3246798445       18.0866769729      -42.9099939409  TIP3      4965            0.0000000000
     28694      5065  TIP3      H1             -4.5254952360       17.5148761210      -42.1518714058  TIP3      4965            0.0000000000
     28695      5065  TIP3      H2             -3.6888228375       17.5221200449      -43.3926074915  TIP3      4965            0.0000000000
     28696      5066  TIP3      OH2            -2.7615352750       16.2529783334      -44.2506153689  TIP3      4966            0.0000000000
     28697      5066  TIP3      H1             -2.5603838786       15.6793278891      -45.0104127425  TIP3      4966            0.0000000000
     28698      5066  TIP3      H2             -1.8864719852       16.2603312885      -43.7886306009  TIP3      4966            0.0000000000
     28699      5067  TIP3      OH2             6.4291220719       18.8647627693      -44.4347893219  TIP3      4967            0.0000000000
     28700      5067  TIP3      H1              6.1873064964       18.9502979875      -45.3754095072  TIP3      4967            0.0000000000
     28701      5067  TIP3      H2              6.4770663783       19.8396843352      -44.2746100862  TIP3      4967            0.0000000000
     28702      5068  TIP3      OH2            -3.2585589011       27.1532784983      -42.5926667868  TIP3      4968            0.0000000000
     28703      5068  TIP3      H1             -2.3619493904       26.9634701533      -42.9494330495  TIP3      4968            0.0000000000
     28704      5068  TIP3      H2             -3.8092310767       27.1080035319      -43.3891831306  TIP3      4968            0.0000000000
     28705      5069  TIP3      OH2            -9.4418084382       21.6550304276      -43.2056208674  TIP3      4969            0.0000000000
     28706      5069  TIP3      H1             -8.4927747027       21.8542536309      -43.3435331496  TIP3      4969            0.0000000000
     28707      5069  TIP3      H2             -9.6965722575       21.2954706544      -44.0697729200  TIP3      4969            0.0000000000
     28708      5070  TIP3      OH2             8.1039782216       17.5376231264      -42.3299306644  TIP3      4970            0.0000000000
     28709      5070  TIP3      H1              7.3503305447       17.1083212325      -42.7656917565  TIP3      4970            0.0000000000
     28710      5070  TIP3      H2              7.6511552046       18.2296391589      -41.8189884272  TIP3      4970            0.0000000000
     28711      5071  TIP3      OH2             5.5129759732       14.9205454262      -44.2641719381  TIP3      4971            0.0000000000
     28712      5071  TIP3      H1              5.9489251968       14.9901594303      -45.1438732880  TIP3      4971            0.0000000000
     28713      5071  TIP3      H2              5.5633221987       13.9543878073      -44.1238286460  TIP3      4971            0.0000000000
     28714      5072  TIP3      OH2             5.4247862274       12.1370681813      -44.6083481631  TIP3      4972            0.0000000000
     28715      5072  TIP3      H1              5.7688336370       11.5146745267      -43.9525223572  TIP3      4972            0.0000000000
     28716      5072  TIP3      H2              4.4719396017       12.0365831540      -44.4902334541  TIP3      4972            0.0000000000
     28717      5073  TIP3      OH2             8.0990862461       11.5875613035      -42.5670661061  TIP3      4973            0.0000000000
     28718      5073  TIP3      H1              7.9460278851       10.6832262117      -42.8893187314  TIP3      4973            0.0000000000
     28719      5073  TIP3      H2              8.3110922923       12.0252971868      -43.4119276651  TIP3      4973            0.0000000000
     28720      5074  TIP3      OH2            -7.5251330268       10.2770178199      -42.8885930414  TIP3      4974            0.0000000000
     28721      5074  TIP3      H1             -6.6854655043        9.7948921912      -42.8958316239  TIP3      4974            0.0000000000
     28722      5074  TIP3      H2             -7.3832258025       10.8758409913      -43.6391292545  TIP3      4974            0.0000000000
     28723      5075  TIP3      OH2            -0.7007592454       26.6092158891      -43.2858885642  TIP3      4975            0.0000000000
     28724      5075  TIP3      H1              0.2472906749       26.8073720652      -43.2999182177  TIP3      4975            0.0000000000
     28725      5075  TIP3      H2             -0.7359691828       25.8079647938      -43.8604845516  TIP3      4975            0.0000000000
     28726      5076  TIP3      OH2            -6.9886268799       25.9210828907      -43.8489545941  TIP3      4976            0.0000000000
     28727      5076  TIP3      H1             -7.1705288134       26.3545892895      -42.9902942346  TIP3      4976            0.0000000000
     28728      5076  TIP3      H2             -6.6720336916       25.0464631084      -43.5777500443  TIP3      4976            0.0000000000
     28729      5077  TIP3      OH2            18.4434019305       15.5144339686      -43.1120526379  TIP3      4977            0.0000000000
     28730      5077  TIP3      H1             19.1252281774       16.1269665097      -42.8083583290  TIP3      4977            0.0000000000
     28731      5077  TIP3      H2             18.8250876493       15.2383492223      -43.9616064762  TIP3      4977            0.0000000000
     28732      5078  TIP3      OH2            25.8129148335       23.4577310963      -43.4629839460  TIP3      4978            0.0000000000
     28733      5078  TIP3      H1             25.7370653952       24.3563073857      -43.0677489868  TIP3      4978            0.0000000000
     28734      5078  TIP3      H2             26.6474301962       23.5866236150      -43.9357863357  TIP3      4978            0.0000000000
     28735      5079  TIP3      OH2            20.9892483148       25.7136306070      -43.0685601040  TIP3      4979            0.0000000000
     28736      5079  TIP3      H1             21.7218821266       25.1529082419      -43.4069545339  TIP3      4979            0.0000000000
     28737      5079  TIP3      H2             21.3006443277       25.9443493409      -42.1872074153  TIP3      4979            0.0000000000
     28738      5080  TIP3      OH2            22.8805708346       18.2617709595      -44.1788913270  TIP3      4980            0.0000000000
     28739      5080  TIP3      H1             22.5794764348       18.0113206172      -45.0731853953  TIP3      4980            0.0000000000
     28740      5080  TIP3      H2             23.7617819848       18.6469536843      -44.3456878401  TIP3      4980            0.0000000000
     28741      5081  TIP3      OH2            18.1105130542       11.8269193108      -43.7670178580  TIP3      4981            0.0000000000
     28742      5081  TIP3      H1             17.1946006343       12.0726056320      -43.5575487855  TIP3      4981            0.0000000000
     28743      5081  TIP3      H2             18.0995386116       10.8648088896      -43.6810753729  TIP3      4981            0.0000000000
     28744      5082  TIP3      OH2            15.0296347071       12.6388071373      -43.8031702621  TIP3      4982            0.0000000000
     28745      5082  TIP3      H1             14.9542302876       12.4375831341      -42.8414855982  TIP3      4982            0.0000000000
     28746      5082  TIP3      H2             14.6880283348       13.5513264440      -43.8177955990  TIP3      4982            0.0000000000
     28747      5083  TIP3      OH2            13.5488339158       15.1681304704      -43.2335097911  TIP3      4983            0.0000000000
     28748      5083  TIP3      H1             12.6543460732       15.0737619689      -43.6151110217  TIP3      4983            0.0000000000
     28749      5083  TIP3      H2             14.0204472034       15.5533666151      -43.9939382297  TIP3      4983            0.0000000000
     28750      5084  TIP3      OH2            20.3416421694       13.0263106060      -42.9246611372  TIP3      4984            0.0000000000
     28751      5084  TIP3      H1             19.5314509608       12.6016025433      -43.2784151318  TIP3      4984            0.0000000000
     28752      5084  TIP3      H2             20.0671995113       13.0683117719      -41.9983009859  TIP3      4984            0.0000000000
     28753      5085  TIP3      OH2            10.8892589758       17.5171658062      -43.8760544463  TIP3      4985            0.0000000000
     28754      5085  TIP3      H1             11.2074273620       18.1189107887      -43.1900364303  TIP3      4985            0.0000000000
     28755      5085  TIP3      H2              9.9318947307       17.5275954681      -43.6868551013  TIP3      4985            0.0000000000
     28756      5086  TIP3      OH2            22.8088742266       21.1347437229      -43.0486046516  TIP3      4986            0.0000000000
     28757      5086  TIP3      H1             22.9774471711       21.1303308073      -42.0859518320  TIP3      4986            0.0000000000
     28758      5086  TIP3      H2             21.8904231488       21.4746622139      -43.0501504566  TIP3      4986            0.0000000000
     28759      5087  TIP3      OH2            26.3168395890       25.8308781021      -42.4580180378  TIP3      4987            0.0000000000
     28760      5087  TIP3      H1             26.6670154262       26.6626967315      -42.8454927028  TIP3      4987            0.0000000000
     28761      5087  TIP3      H2             26.6400022999       25.9225545715      -41.5339022420  TIP3      4987            0.0000000000
     28762      5088  TIP3      OH2            16.8976536762       21.2287536054      -43.4758476290  TIP3      4988            0.0000000000
     28763      5088  TIP3      H1             16.2015187369       21.3965943414      -44.1484977419  TIP3      4988            0.0000000000
     28764      5088  TIP3      H2             16.3795415301       21.4696511956      -42.6719050444  TIP3      4988            0.0000000000
     28765      5089  TIP3      OH2            15.2537736562       22.6127149787      -41.7137923989  TIP3      4989            0.0000000000
     28766      5089  TIP3      H1             14.8777591122       22.1656819314      -40.9277827281  TIP3      4989            0.0000000000
     28767      5089  TIP3      H2             15.2172050175       23.5408728892      -41.4568952113  TIP3      4989            0.0000000000
     28768      5090  TIP3      OH2            12.3440371001       22.3012725243      -43.0354331816  TIP3      4990            0.0000000000
     28769      5090  TIP3      H1             13.1606751562       22.6525304127      -42.6485753023  TIP3      4990            0.0000000000
     28770      5090  TIP3      H2             12.6383955850       21.4277428028      -43.3442480835  TIP3      4990            0.0000000000
     28771      5091  TIP3      OH2            10.6780146490       14.6031305938      -43.7716409557  TIP3      4991            0.0000000000
     28772      5091  TIP3      H1             10.6975671815       15.5639422861      -43.5971525541  TIP3      4991            0.0000000000
     28773      5091  TIP3      H2              9.8965935941       14.3271537442      -43.2868985542  TIP3      4991            0.0000000000
     28774      5092  TIP3      OH2            17.7885021537       23.8887796064      -44.4077699402  TIP3      4992            0.0000000000
     28775      5092  TIP3      H1             17.4211716676       23.0048967378      -44.5520138596  TIP3      4992            0.0000000000
     28776      5092  TIP3      H2             18.1019071844       24.1359959135      -45.3073645136  TIP3      4992            0.0000000000
     28777      5093  TIP3      OH2            23.0890783808       24.2262455976      -44.4757596381  TIP3      4993            0.0000000000
     28778      5093  TIP3      H1             23.9161883201       23.8405299556      -44.1340460174  TIP3      4993            0.0000000000
     28779      5093  TIP3      H2             23.2379017316       24.2238208060      -45.4377178921  TIP3      4993            0.0000000000
     28780      5094  TIP3      OH2            13.2383353004       20.0080960666      -44.2057570870  TIP3      4994            0.0000000000
     28781      5094  TIP3      H1             12.9864478964       19.5150888993      -43.4124721937  TIP3      4994            0.0000000000
     28782      5094  TIP3      H2             14.0606410125       19.5295544611      -44.4327582425  TIP3      4994            0.0000000000
     28783      5095  TIP3      OH2            19.7495773452       21.0216129358      -42.9677920988  TIP3      4995            0.0000000000
     28784      5095  TIP3      H1             18.7781673911       21.0773619665      -42.8536156424  TIP3      4995            0.0000000000
     28785      5095  TIP3      H2             19.8228024139       20.2513201447      -43.5350535742  TIP3      4995            0.0000000000
     28786      5096  TIP3      OH2            14.6642211096       18.0448393775      -42.6633553602  TIP3      4996            0.0000000000
     28787      5096  TIP3      H1             14.9209349019       17.4695329213      -41.9224766387  TIP3      4996            0.0000000000
     28788      5096  TIP3      H2             15.1996972934       17.6273372106      -43.3702549786  TIP3      4996            0.0000000000
     28789      5097  TIP3      OH2            16.1797252741       16.3639618449      -44.2211146361  TIP3      4997            0.0000000000
     28790      5097  TIP3      H1             16.3287602986       15.9444954836      -45.0803909740  TIP3      4997            0.0000000000
     28791      5097  TIP3      H2             17.0016632373       16.1449601091      -43.7298365907  TIP3      4997            0.0000000000
     28792      5098  TIP3      OH2            25.3523527985       18.9489396536       45.0214554526  TIP3      4998            0.0000000000
     28793      5098  TIP3      H1             25.0844610568       18.9417952165       44.0794683036  TIP3      4998            0.0000000000
     28794      5098  TIP3      H2             25.6728517248       19.8772489404       45.0615532237  TIP3      4998            0.0000000000
     28795      5099  TIP3      OH2            15.8254173229       27.1548479507      -42.6377476688  TIP3      4999            0.0000000000
     28796      5099  TIP3      H1             16.5010002858       26.6291186557      -43.0782318191  TIP3      4999            0.0000000000
     28797      5099  TIP3      H2             15.3156179550       27.4810710489      -43.3917226366  TIP3      4999            0.0000000000
     28798      5100  TIP3      OH2             9.5826270253       21.2618585041      -42.8634723308  TIP3      5000            0.0000000000
     28799      5100  TIP3      H1             10.4590402598       21.6878794387      -42.9458372410  TIP3      5000            0.0000000000
     28800      5100  TIP3      H2              9.2765879083       21.3010873291      -43.7857846580  TIP3      5000            0.0000000000
     28801      5101  POT       POT            -6.5363188940        9.4655346381      -38.7559665323  IONS      1               1.0000000000
     28802      5102  POT       POT           -10.5049748947       -2.8115809616       39.1718777612  IONS      2               1.0000000000
     28803      5103  POT       POT             3.5920714463       -5.9305983498       29.8347786778  IONS      3               1.0000000000
     28804      5104  POT       POT             8.0105516914        0.1511436434       32.4420046286  IONS      4               1.0000000000
     28805      5105  POT       POT             4.9687049875       23.4941731032      -33.4082177814  IONS      5               1.0000000000
     28806      5106  POT       POT            -2.2104799052        2.8444774277       33.2105821158  IONS      6               1.0000000000
     28807      5107  POT       POT             8.9957705667        6.9263450683       25.5474891263  IONS      7               1.0000000000
     28808      5108  POT       POT           -24.4035586532       -2.1667853538      -24.5098921336  IONS      8               1.0000000000
     28809      5109  POT       POT             5.1558970710      -28.2000702330      -19.4049176769  IONS      9               1.0000000000
     28810      5110  POT       POT            14.8894607908       -8.3997758803      -33.1825380419  IONS      10              1.0000000000
     28811      5111  CLA       CLA            -6.3988350977      -21.4445960393       29.1938115058  IONS      11             -1.0000000000
     28812      5112  CLA       CLA            14.0165199711        0.9640508247       23.7814844851  IONS      12             -1.0000000000
     28813      5113  CLA       CLA           -29.1751670477       12.4855463019       32.4031698672  IONS      13             -1.0000000000
     28814      5114  CLA       CLA             2.0717209644      -14.2436953689       23.6836082994  IONS      14             -1.0000000000
     28815      5115  CLA       CLA             3.6282099801      -28.8691603947      -39.8414928167  IONS      15             -1.0000000000
     28816      5116  CLA       CLA           -21.0328314704       12.4604550423      -26.5680125994  IONS      16             -1.0000000000
     28817      5117  CLA       CLA           -18.3405032943      -27.4496789859      -38.9415845778  IONS      17             -1.0000000000
     28818      5118  CLA       CLA            -6.0767462376       -0.2692370980       33.1172249199  IONS      18             -1.0000000000
     28819      5119  CLA       CLA             8.9333830208        9.1918742117      -33.1708716100  IONS      19             -1.0000000000
     28820      5120  CLA       CLA           -22.0775340053       -5.8758138523       25.8417525810  IONS      20             -1.0000000000
